Process 0 of 1 is on v7 - thread support 0
initial socket setup ...start
initial socket setup ...done 
now start server 0 ... 
                  Welcome to Q-Chem
     A Quantum Leap Into The Future Of Chemistry


 Q-Chem 4.2, Q-Chem, Inc., Pleasanton, CA (2014).

 Y. Shao,  Z. Gan,  E. Epifanovsky,  A. T. B. Gilbert,  M. Wormit,  
 J. Kussmann,  A. W. Lange,  A. Behn,  J. Deng,  X. Feng,  D. Ghosh,  
 M. Goldey,  P. R. Horn,  L. D. Jacobson,  I. Kaliman,  R. Z. Khaliullin,  
 T. Kus,  A. Landau,  J. Liu,  E. I. Proynov,  Y. M. Rhee,  R. M. Richard,  
 M. A. Rohrdanz,  R. P. Steele,  E. J. Sundstrom,  H. L. Woodcock III,  
 P. M. Zimmerman,  D. Zuev,  B. Albrecht,  E. Alguire,  B. Austin,  
 G. J. O. Beran,  Y. A. Bernard,  E. Berquist,  K. Brandhorst,  
 K. B. Bravaya,  S. T. Brown,  D. Casanova,  C.-M. Chang,  Y. Chen,  
 S. H. Chien,  K. D. Closser,  D. L. Crittenden,  M. Diedenhofen,  
 R. A. DiStasio Jr.,  H. Do,  A. D. Dutoi,  R. G. Edgar,  S. Fatehi,  
 L. Fusti-Molnar,  A. Ghysels,  A. Golubeva-Zadorozhnaya,  J. Gomes,  
 M. W. D. Hanson-Heine,  P. H. P. Harbach,  A. W. Hauser,  E. G. Hohenstein,  
 Z. C. Holden,  T.-C. Jagau,  H. Ji,  B. Kaduk,  K. Khistyaev,  Jaehoon Kim,  
 Jihan Kim,  R. A. King,  P. Klunzinger,  D. Kosenkov,  T. Kowalczyk,  
 C. M. Krauter,  K. U. Lao,  A. Laurent,  K. V. Lawler,  S. V. Levchenko,  
 C. Y. Lin,  F. Liu,  E. Livshits,  R. C. Lochan,  A. Luenser,  P. Manohar,  
 S. F. Manzer,  S.-P. Mao,  N. Mardirossian,  A. V. Marenich,  S. A. Maurer,  
 N. J. Mayhall,  C. M. Oana,  R. Olivares-Amaya,  D. P. O'Neill,  
 J. A. Parkhill,  T. M. Perrine,  R. Peverati,  P. A. Pieniazek,  A. Prociuk,  
 D. R. Rehn,  E. Rosta,  N. J. Russ,  N. Sergueev,  S. M. Sharada,  
 S. Sharma,  D. W. Small,  A. Sodt,  T. Stein,  D. Stuck,  Y.-C. Su,  
 A. J. W. Thom,  T. Tsuchimochi,  L. Vogt,  O. Vydrov,  T. Wang,  
 M. A. Watson,  J. Wenzel,  A. White,  C. F. Williams,  V. Vanovschi,  
 S. Yeganeh,  S. R. Yost,  Z.-Q. You,  I. Y. Zhang,  X. Zhang,  Y. Zhao,  
 B. R. Brooks,  G. K. L. Chan,  D. M. Chipman,  C. J. Cramer,  
 W. A. Goddard III,  M. S. Gordon,  W. J. Hehre,  A. Klamt,  
 H. F. Schaefer III,  M. W. Schmidt,  C. D. Sherrill,  D. G. Truhlar,  
 A. Warshel,  X. Xu,  A. Aspuru-Guzik,  R. Baer,  A. T. Bell,  N. A. Besley,  
 J.-D. Chai,  A. Dreuw,  B. D. Dunietz,  T. R. Furlani,  S. R. Gwaltney,  
 C.-P. Hsu,  Y. Jung,  J. Kong,  D. S. Lambrecht,  W. Liang,  C. Ochsenfeld,  
 V. A. Rassolov,  L. V. Slipchenko,  J. E. Subotnik,  T. Van Voorhis,  
 J. M. Herbert,  A. I. Krylov,  P. M. W. Gill,  M. Head-Gordon

 Contributors to earlier versions of Q-Chem not listed above: 
 R. D. Adamson,  J. Baker,  E. F. C. Byrd,  A. K. Chakraborty,  C.-L. Cheng,  
 H. Dachsel,  R. J. Doerksen,  G. Hawkins,  A. Heyden,  S. Hirata,  
 G. Kedziora,  F. J. Keil,  C. Kelley,  P. P. Korambath,  W. Kurlancheek,  
 A. M. Lee,  M. S. Lee,  D. Liotard,  I. Lotan,  P. E. Maslen,  N. Nair,  
 D. Neuhauser,  R. Olson,  B. Peters,  J. Ritchie,  N. E. Schultz,  
 N. Shenvi,  A. C. Simmonett,  K. S. Thanthiriwatte,  Q. Wu,  W. Zhang

 Q-Chem 4.2.0 for Intel X86 EM64T Linux

 Parts of Q-Chem use Armadillo 4.100.2 (Dirt Cruiser).
 http://arma.sourceforge.net/

 Q-Chem begins on Wed Jul 29 15:11:41 2015  

Host: v7
0

     Scratch files written to /tmp1/alex/132103/qchem24705//
 Jun2414 |opt|qchem|4.2|qc42|libmdc|qstr_info.C -1
 Parallel job on  1  processors
Finally everything over in PARseQInput

--------------------------------------------------------------
User input:
--------------------------------------------------------------
$molecule
0 1
H 0.0 0.0 0.0
H 0.0 0.0 0.5
$end

$rem
method      eom-ccsd
basis       6-311G
cc_symmetry false
ee_singlets [12]
ee_triplets [12]
$end

--------------------------------------------------------------
 ----------------------------------------------------------------
             Standard Nuclear Orientation (Angstroms)
    I     Atom           X                Y                Z
 ----------------------------------------------------------------
    1      H       0.0000000000     0.0000000000    -0.2500000000
    2      H       0.0000000000     0.0000000000     0.2500000000
 ----------------------------------------------------------------
 Molecular Point Group                 D*h   NOp =***
 Largest Abelian Subgroup              D2h   NOp =  1
 Nuclear Repulsion Energy =     1.0583544216 hartrees
 There are        1 alpha and        1 beta electrons
 Requested basis set is 6-311G
 There are 6 shells and 6 basis functions
Total memory of 1801MB is distributed as follows: 
   QALLOC including MEM_STATIC uses 1301MB
   MEM_STATIC is set to 301MB
   CCMAN JOB total memory use is  1500MB
Warning: actual memory use might exceed 1801MB

Total QAlloc Memory Limit   1301 MB
Mega-Array Size       295 MB
MEM_STATIC part       301 MB

                       Distance Matrix (Angstroms)
             H (  1)
   H (  2)  0.500000
 
 A cutoff of  1.0D-14 yielded     21 shell pairs
 There are        21 function pairs
 Smallest overlap matrix eigenvalue = 1.65E-02

  Scale SEOQF with 1.000000e+00/1.000000e+00/1.000000e+00

 Standard Electronic Orientation quadrupole field applied
 Nucleus-field energy     =    -0.0000000001 hartrees
 Guess from superposition of atomic densities
 Warning:  Energy on first SCF cycle will be non-variational
 A restricted Hartree-Fock SCF calculation will be
 performed using Pulay DIIS extrapolation
 SCF converges when DIIS error is below 1.0E-08
 ---------------------------------------
  Cycle       Energy         DIIS Error
 ---------------------------------------
    1      -0.7886354052      1.25E-01
    2      -1.0581795370      1.48E-02
    3      -1.0600833111      1.41E-03
    4      -1.0601035553      9.54E-05
    5      -1.0601036456      5.46E-08
    6      -1.0601036456      8.93E-09 Convergence criterion met
 ---------------------------------------
 SCF time:  CPU 0.01 s  wall 0.01 s
 SCF   energy in the final basis set = -1.0601036456
 Total energy in the final basis set = -1.0601036456


 ------------------------------------------------------------------------------

   CCMAN2: suite of methods based on coupled cluster
           and equation of motion theories.

   Components:
   * libvmm-1.2-release
     by Evgeny Epifanovsky, Ilya Kaliman.
   * libtensor-2.3-release
     by Evgeny Epifanovsky, Michael Wormit, Dmitry Zuev, Sam Manzer.
   * libcc-2.3-release
     by Evgeny Epifanovsky, Arik Landau, Tomasz Kus, Kirill Khistyaev, 
        Dmitry Zuev, Prashant Manohar, Xintian Feng, Anna Krylov, 
        Matthew Goldey, Alec White, Thomas Jagau.

   CCMAN original authors:
   Anna I. Krylov, C. David Sherrill, Steven R. Gwaltney,
   Edward F. C. Byrd (2000)
   Sergey V. Levchenko, Lyudmila V. Slipchenko, Tao Wang,
   Ana-Maria C. Cristian (2003)
   Piotr A. Pieniazek, C. Melania Oana, Evgeny Epifanovsky (2007)
   Prashant Manohar (2009)

 ------------------------------------------------------------------------------


 Calculation will run on 1 core with 1500MB of RAM.


 Occupation and symmetry of molecular orbitals

 Point group: C1 (1 irreducible representation).

                           A     All 
 -------------------------------------
 All molecular orbitals:
  - Alpha                  6     6   
  - Beta                   6     6   
 -------------------------------------
 Alpha orbitals:
  - Frozen occupied        0     0   
  - Active occupied        1     1   
  - Active virtual         5     5   
  - Frozen virtual         0     0   
 -------------------------------------
 Beta orbitals:
  - Frozen occupied        0     0   
  - Active occupied        1     1   
  - Active virtual         5     5   
  - Frozen virtual         0     0   
 -------------------------------------

 Import integrals:   CPU 0.00 s  wall 0.00 s

 
 Import integrals:   CPU 0.00 s  wall 0.01 s

 MP2 amplitudes:   CPU 0.00 s  wall 0.00 s

           CCSD T amplitudes will be solved using DIIS.

           Start     Size      MaxIter   EConv     TConv     
           3         7         100       1.0e-06   0.00010   
 ------------------------------------------------------------------------------
           Energy (a.u.)   Ediff      Tdiff       Comment
 ------------------------------------------------------------------------------
            -1.07668898                           
     1      -1.08071006   4.02e-03   9.95e-02     
     2      -1.08179902   1.09e-03   2.62e-02     
     3      -1.08211454   3.16e-04   7.81e-03     
     4      -1.08225339   1.39e-04   3.47e-03     Switched to DIIS steps.
     5      -1.08225314   2.51e-07   1.54e-04     
     6      -1.08225305   8.31e-08   1.48e-05     
 ------------------------------------------------------------------------------
            -1.08225305                           CCSD T converged.

 SCF energy                 = -1.06010365
 MP2 energy                 = -1.07668898
 CCSD correlation energy    = -0.02214941
 CCSD total energy          = -1.08225305

 CCSD  T1^2 = 0.0000  T2^2 = 0.0090.  Leading amplitudes:

 Amplitude    Orbitals with energies
 -0.0027       1 (A) A                   ->    5 (A) A                    
              -0.6819                          2.0868                     
 -0.0027       1 (A) B                   ->    5 (A) B                    
              -0.6819                          2.0868                     
 -0.0024       1 (A) A                   ->    3 (A) A                    
              -0.6819                          0.2872                     
 -0.0024       1 (A) B                   ->    3 (A) B                    
              -0.6819                          0.2872                     

 Amplitude    Orbitals with energies
 -0.0489       1 (A) A       1 (A) B     ->    4 (A) A       4 (A) B      
              -0.6819       -0.6819            0.7668        0.7668       
  0.0489       1 (A) A       1 (A) B     ->    4 (A) B       4 (A) A      
              -0.6819       -0.6819            0.7668        0.7668       
  0.0489       1 (A) B       1 (A) A     ->    4 (A) A       4 (A) B      
              -0.6819       -0.6819            0.7668        0.7668       
 -0.0489       1 (A) B       1 (A) A     ->    4 (A) B       4 (A) A      
              -0.6819       -0.6819            0.7668        0.7668       

 CCSD calculation:   CPU 0.39 s  wall 0.40 s

           Solving for EOMEE-CCSD A singlet states.

      EOMEE-CCSD right amplitudes will be solved using Davidson.
      Roots     MaxVec    MaxIter   Precond   Conv      Thresh    Shift    
      12        60        60        0         1.00e-05  1.00e-05  0.00e+00  
 ------------------------------------------------------------------------------
         Vec  Conv   RNorm       Current eigenvalues (eV)
 ------------------------------------------------------------------------------
          13     0  2.90e-02    15.9279    18.7009    30.6135    38.7646 
                                41.9613    44.0184    52.0296    52.8367 
                                61.7217    63.8367    78.0942    81.4100 
     1    20    12  4.77e-26    15.9178*   18.5614*   30.2869*   38.5455*
                                41.7285*   43.9432*   51.6358*   52.1606*
                                60.8495*   63.2578*   77.1604*   81.0485*
     2    12     0  0.00e+00 
 ------------------------------------------------------------------------------

 EOMEE-CCSD transition 1/A
 Total energy = -0.49728621 a.u.  Excitation energy = 15.9178 eV.
 R1^2 = 0.9655  R2^2 = 0.0345  Res^2 = 1.10e-29

 Amplitude    Transitions between orbitals
 -0.6937       1 (A) A                   ->    2 (A) A                    
 -0.6937       1 (A) B                   ->    2 (A) B                    
 -0.0369       1 (A) A                   ->    4 (A) A                    
 -0.0369       1 (A) B                   ->    4 (A) B                    

              Summary of significant orbitals:

               Number  Type             Irrep      Energy
               1       Occ  Alpha       1 (A)     -0.6819
               1       Occ  Beta        1 (A)     -0.6819
               2       Vir  Alpha       2 (A)      0.1995
               4       Vir  Alpha       4 (A)      0.7668
               2       Vir  Beta        2 (A)      0.1995
               4       Vir  Beta        4 (A)      0.7668


 EOMEE-CCSD transition 2/A
 Total energy = -0.40013428 a.u.  Excitation energy = 18.5614 eV.
 R1^2 = 0.9563  R2^2 = 0.0437  Res^2 = 1.82e-29

 Amplitude    Transitions between orbitals
  0.6915       1 (A) A                   ->    3 (A) A                    
  0.6915       1 (A) B                   ->    3 (A) B                    
  0.0011       1 (A) A                   ->    5 (A) A                    
  0.0011       1 (A) B                   ->    5 (A) B                    

              Summary of significant orbitals:

               Number  Type             Irrep      Energy
               1       Occ  Alpha       1 (A)     -0.6819
               1       Occ  Beta        1 (A)     -0.6819
               3       Vir  Alpha       3 (A)      0.2872
               5       Vir  Alpha       5 (A)      2.0868
               3       Vir  Beta        3 (A)      0.2872
               5       Vir  Beta        5 (A)      2.0868


 EOMEE-CCSD transition 3/A
 Total energy = 0.03077076 a.u.  Excitation energy = 30.2869 eV.
 R1^2 = 0.9859  R2^2 = 0.0141  Res^2 = 1.95e-29

 Amplitude    Transitions between orbitals
 -0.7015       1 (A) A                   ->    4 (A) A                    
 -0.7015       1 (A) B                   ->    4 (A) B                    
  0.0288       1 (A) A                   ->    2 (A) A                    
  0.0288       1 (A) B                   ->    2 (A) B                    

              Summary of significant orbitals:

               Number  Type             Irrep      Energy
               1       Occ  Alpha       1 (A)     -0.6819
               1       Occ  Beta        1 (A)     -0.6819
               2       Vir  Alpha       2 (A)      0.1995
               4       Vir  Alpha       4 (A)      0.7668
               2       Vir  Beta        2 (A)      0.1995
               4       Vir  Beta        4 (A)      0.7668


 EOMEE-CCSD transition 4/A
 Total energy = 0.33426871 a.u.  Excitation energy = 38.5455 eV.
 R1^2 = 0.0015  R2^2 = 0.9985  Res^2 = 2.10e-28

 Amplitude    Transitions between orbitals
 -0.8375       1 (A) A       1 (A) B     ->    2 (A) A       2 (A) B      
  0.8375       1 (A) A       1 (A) B     ->    2 (A) B       2 (A) A      
  0.8375       1 (A) B       1 (A) A     ->    2 (A) A       2 (A) B      
 -0.8375       1 (A) B       1 (A) A     ->    2 (A) B       2 (A) A      
 -0.3466       1 (A) A       1 (A) B     ->    4 (A) A       2 (A) B      
  0.3466       1 (A) A       1 (A) B     ->    2 (A) B       4 (A) A      
  0.3466       1 (A) B       1 (A) A     ->    4 (A) A       2 (A) B      
 -0.3466       1 (A) B       1 (A) A     ->    4 (A) B       2 (A) A      
 -0.3466       1 (A) A       1 (A) B     ->    2 (A) A       4 (A) B      
  0.3466       1 (A) A       1 (A) B     ->    4 (A) B       2 (A) A      
  0.3466       1 (A) B       1 (A) A     ->    2 (A) A       4 (A) B      
 -0.3466       1 (A) B       1 (A) A     ->    2 (A) B       4 (A) A      
  0.2209       1 (A) A       1 (A) B     ->    3 (A) A       3 (A) B      
 -0.2209       1 (A) A       1 (A) B     ->    3 (A) B       3 (A) A      
 -0.2209       1 (A) B       1 (A) A     ->    3 (A) A       3 (A) B      
  0.2209       1 (A) B       1 (A) A     ->    3 (A) B       3 (A) A      

              Summary of significant orbitals:

               Number  Type             Irrep      Energy
               1       Occ  Alpha       1 (A)     -0.6819
               1       Occ  Beta        1 (A)     -0.6819
               2       Vir  Alpha       2 (A)      0.1995
               3       Vir  Alpha       3 (A)      0.2872
               4       Vir  Alpha       4 (A)      0.7668
               2       Vir  Beta        2 (A)      0.1995
               3       Vir  Beta        3 (A)      0.2872
               4       Vir  Beta        4 (A)      0.7668


 EOMEE-CCSD transition 5/A
 Total energy = 0.45123993 a.u.  Excitation energy = 41.7285 eV.
 R1^2 = 0.0290  R2^2 = 0.9710  Res^2 = 2.43e-29

 Amplitude    Transitions between orbitals
 -0.5928       1 (A) A       1 (A) B     ->    2 (A) A       3 (A) B      
  0.5928       1 (A) A       1 (A) B     ->    3 (A) B       2 (A) A      
  0.5928       1 (A) B       1 (A) A     ->    2 (A) A       3 (A) B      
 -0.5928       1 (A) B       1 (A) A     ->    2 (A) B       3 (A) A      
 -0.5928       1 (A) A       1 (A) B     ->    3 (A) A       2 (A) B      
  0.5928       1 (A) A       1 (A) B     ->    2 (A) B       3 (A) A      
  0.5928       1 (A) B       1 (A) A     ->    3 (A) A       2 (A) B      
 -0.5928       1 (A) B       1 (A) A     ->    3 (A) B       2 (A) A      
 -0.3586       1 (A) A       1 (A) B     ->    3 (A) A       4 (A) B      
  0.3586       1 (A) A       1 (A) B     ->    4 (A) B       3 (A) A      
  0.3586       1 (A) B       1 (A) A     ->    3 (A) A       4 (A) B      
 -0.3586       1 (A) B       1 (A) A     ->    3 (A) B       4 (A) A      
 -0.3586       1 (A) A       1 (A) B     ->    4 (A) A       3 (A) B      
  0.3586       1 (A) A       1 (A) B     ->    3 (A) B       4 (A) A      
  0.3586       1 (A) B       1 (A) A     ->    4 (A) A       3 (A) B      
 -0.3586       1 (A) B       1 (A) A     ->    4 (A) B       3 (A) A      

              Summary of significant orbitals:

               Number  Type             Irrep      Energy
               1       Occ  Alpha       1 (A)     -0.6819
               1       Occ  Beta        1 (A)     -0.6819
               2       Vir  Alpha       2 (A)      0.1995
               3       Vir  Alpha       3 (A)      0.2872
               4       Vir  Alpha       4 (A)      0.7668
               2       Vir  Beta        2 (A)      0.1995
               3       Vir  Beta        3 (A)      0.2872
               4       Vir  Beta        4 (A)      0.7668


 EOMEE-CCSD transition 6/A
 Total energy = 0.53263080 a.u.  Excitation energy = 43.9432 eV.
 R1^2 = 0.0449  R2^2 = 0.9551  Res^2 = 3.50e-29

 Amplitude    Transitions between orbitals
  0.9314       1 (A) A       1 (A) B     ->    3 (A) A       3 (A) B      
 -0.9314       1 (A) A       1 (A) B     ->    3 (A) B       3 (A) A      
 -0.9314       1 (A) B       1 (A) A     ->    3 (A) A       3 (A) B      
  0.9314       1 (A) B       1 (A) A     ->    3 (A) B       3 (A) A      
  0.1469       1 (A) A       1 (A) B     ->    2 (A) A       4 (A) B      
 -0.1469       1 (A) A       1 (A) B     ->    4 (A) B       2 (A) A      
 -0.1469       1 (A) B       1 (A) A     ->    2 (A) A       4 (A) B      
  0.1469       1 (A) B       1 (A) A     ->    2 (A) B       4 (A) A      
  0.1469       1 (A) A       1 (A) B     ->    4 (A) A       2 (A) B      
 -0.1469       1 (A) A       1 (A) B     ->    2 (A) B       4 (A) A      
 -0.1469       1 (A) B       1 (A) A     ->    4 (A) A       2 (A) B      
  0.1469       1 (A) B       1 (A) A     ->    4 (A) B       2 (A) A      
  0.1375       1 (A) A       1 (A) B     ->    2 (A) A       2 (A) B      
 -0.1375       1 (A) A       1 (A) B     ->    2 (A) B       2 (A) A      
 -0.1375       1 (A) B       1 (A) A     ->    2 (A) A       2 (A) B      
  0.1375       1 (A) B       1 (A) A     ->    2 (A) B       2 (A) A      
 -0.1090       1 (A) A       1 (A) B     ->    3 (A) A       5 (A) B      
  0.1090       1 (A) A       1 (A) B     ->    5 (A) B       3 (A) A      
  0.1090       1 (A) B       1 (A) A     ->    3 (A) A       5 (A) B      
 -0.1090       1 (A) B       1 (A) A     ->    3 (A) B       5 (A) A      
 -0.1090       1 (A) A       1 (A) B     ->    5 (A) A       3 (A) B      
  0.1090       1 (A) A       1 (A) B     ->    3 (A) B       5 (A) A      
  0.1090       1 (A) B       1 (A) A     ->    5 (A) A       3 (A) B      
 -0.1090       1 (A) B       1 (A) A     ->    5 (A) B       3 (A) A      

              Summary of significant orbitals:

               Number  Type             Irrep      Energy
               1       Occ  Alpha       1 (A)     -0.6819
               1       Occ  Beta        1 (A)     -0.6819
               2       Vir  Alpha       2 (A)      0.1995
               3       Vir  Alpha       3 (A)      0.2872
               4       Vir  Alpha       4 (A)      0.7668
               5       Vir  Alpha       5 (A)      2.0868
               2       Vir  Beta        2 (A)      0.1995
               3       Vir  Beta        3 (A)      0.2872
               4       Vir  Beta        4 (A)      0.7668
               5       Vir  Beta        5 (A)      2.0868


 EOMEE-CCSD transition 7/A
 Total energy = 0.81532669 a.u.  Excitation energy = 51.6358 eV.
 R1^2 = 0.0065  R2^2 = 0.9935  Res^2 = 3.77e-27

 Amplitude    Transitions between orbitals
 -0.5140       1 (A) A       1 (A) B     ->    2 (A) A       4 (A) B      
  0.5140       1 (A) A       1 (A) B     ->    4 (A) B       2 (A) A      
  0.5140       1 (A) B       1 (A) A     ->    2 (A) A       4 (A) B      
 -0.5140       1 (A) B       1 (A) A     ->    2 (A) B       4 (A) A      
 -0.5140       1 (A) A       1 (A) B     ->    4 (A) A       2 (A) B      
  0.5140       1 (A) A       1 (A) B     ->    2 (A) B       4 (A) A      
  0.5140       1 (A) B       1 (A) A     ->    4 (A) A       2 (A) B      
 -0.5140       1 (A) B       1 (A) A     ->    4 (A) B       2 (A) A      
  0.4851       1 (A) A       1 (A) B     ->    2 (A) A       2 (A) B      
 -0.4851       1 (A) A       1 (A) B     ->    2 (A) B       2 (A) A      
 -0.4851       1 (A) B       1 (A) A     ->    2 (A) A       2 (A) B      
  0.4851       1 (A) B       1 (A) A     ->    2 (A) B       2 (A) A      
 -0.4633       1 (A) A       1 (A) B     ->    4 (A) A       4 (A) B      
  0.4633       1 (A) A       1 (A) B     ->    4 (A) B       4 (A) A      
  0.4633       1 (A) B       1 (A) A     ->    4 (A) A       4 (A) B      
 -0.4633       1 (A) B       1 (A) A     ->    4 (A) B       4 (A) A      

              Summary of significant orbitals:

               Number  Type             Irrep      Energy
               1       Occ  Alpha       1 (A)     -0.6819
               1       Occ  Beta        1 (A)     -0.6819
               2       Vir  Alpha       2 (A)      0.1995
               4       Vir  Alpha       4 (A)      0.7668
               2       Vir  Beta        2 (A)      0.1995
               4       Vir  Beta        4 (A)      0.7668


 EOMEE-CCSD transition 8/A
 Total energy = 0.83461257 a.u.  Excitation energy = 52.1606 eV.
 R1^2 = 0.0178  R2^2 = 0.9822  Res^2 = 8.75e-29

 Amplitude    Transitions between orbitals
  0.5966       1 (A) A       1 (A) B     ->    3 (A) A       4 (A) B      
 -0.5966       1 (A) A       1 (A) B     ->    4 (A) B       3 (A) A      
 -0.5966       1 (A) B       1 (A) A     ->    3 (A) A       4 (A) B      
  0.5966       1 (A) B       1 (A) A     ->    3 (A) B       4 (A) A      
  0.5966       1 (A) A       1 (A) B     ->    4 (A) A       3 (A) B      
 -0.5966       1 (A) A       1 (A) B     ->    3 (A) B       4 (A) A      
 -0.5966       1 (A) B       1 (A) A     ->    4 (A) A       3 (A) B      
  0.5966       1 (A) B       1 (A) A     ->    4 (A) B       3 (A) A      
 -0.3475       1 (A) A       1 (A) B     ->    2 (A) A       3 (A) B      
  0.3475       1 (A) A       1 (A) B     ->    3 (A) B       2 (A) A      
  0.3475       1 (A) B       1 (A) A     ->    2 (A) A       3 (A) B      
 -0.3475       1 (A) B       1 (A) A     ->    2 (A) B       3 (A) A      
 -0.3475       1 (A) A       1 (A) B     ->    3 (A) A       2 (A) B      
  0.3475       1 (A) A       1 (A) B     ->    2 (A) B       3 (A) A      
  0.3475       1 (A) B       1 (A) A     ->    3 (A) A       2 (A) B      
 -0.3475       1 (A) B       1 (A) A     ->    3 (A) B       2 (A) A      

              Summary of significant orbitals:

               Number  Type             Irrep      Energy
               1       Occ  Alpha       1 (A)     -0.6819
               1       Occ  Beta        1 (A)     -0.6819
               2       Vir  Alpha       2 (A)      0.1995
               3       Vir  Alpha       3 (A)      0.2872
               4       Vir  Alpha       4 (A)      0.7668
               2       Vir  Beta        2 (A)      0.1995
               3       Vir  Beta        3 (A)      0.2872
               4       Vir  Beta        4 (A)      0.7668


 EOMEE-CCSD transition 9/A
 Total energy = 1.15392385 a.u.  Excitation energy = 60.8495 eV.
 R1^2 = 0.0039  R2^2 = 0.9961  Res^2 = 2.36e-26

 Amplitude    Transitions between orbitals
  0.8735       1 (A) A       1 (A) B     ->    4 (A) A       4 (A) B      
 -0.8735       1 (A) A       1 (A) B     ->    4 (A) B       4 (A) A      
 -0.8735       1 (A) B       1 (A) A     ->    4 (A) A       4 (A) B      
  0.8735       1 (A) B       1 (A) A     ->    4 (A) B       4 (A) A      
 -0.2930       1 (A) A       1 (A) B     ->    4 (A) A       2 (A) B      
  0.2930       1 (A) A       1 (A) B     ->    2 (A) B       4 (A) A      
  0.2930       1 (A) B       1 (A) A     ->    4 (A) A       2 (A) B      
 -0.2930       1 (A) B       1 (A) A     ->    4 (A) B       2 (A) A      
 -0.2930       1 (A) A       1 (A) B     ->    2 (A) A       4 (A) B      
  0.2930       1 (A) A       1 (A) B     ->    4 (A) B       2 (A) A      
  0.2930       1 (A) B       1 (A) A     ->    2 (A) A       4 (A) B      
 -0.2930       1 (A) B       1 (A) A     ->    2 (A) B       4 (A) A      
  0.2066       1 (A) A       1 (A) B     ->    2 (A) A       2 (A) B      
 -0.2066       1 (A) A       1 (A) B     ->    2 (A) B       2 (A) A      
 -0.2066       1 (A) B       1 (A) A     ->    2 (A) A       2 (A) B      
  0.2066       1 (A) B       1 (A) A     ->    2 (A) B       2 (A) A      

              Summary of significant orbitals:

               Number  Type             Irrep      Energy
               1       Occ  Alpha       1 (A)     -0.6819
               1       Occ  Beta        1 (A)     -0.6819
               2       Vir  Alpha       2 (A)      0.1995
               4       Vir  Alpha       4 (A)      0.7668
               2       Vir  Beta        2 (A)      0.1995
               4       Vir  Beta        4 (A)      0.7668


 EOMEE-CCSD transition 10/A
 Total energy = 1.24242927 a.u.  Excitation energy = 63.2578 eV.
 R1^2 = 0.9753  R2^2 = 0.0247  Res^2 = 3.68e-26

 Amplitude    Transitions between orbitals
  0.6982       1 (A) A                   ->    5 (A) A                    
  0.6982       1 (A) B                   ->    5 (A) B                    
  0.0138       1 (A) A                   ->    3 (A) A                    
  0.0138       1 (A) B                   ->    3 (A) B                    

              Summary of significant orbitals:

               Number  Type             Irrep      Energy
               1       Occ  Alpha       1 (A)     -0.6819
               1       Occ  Beta        1 (A)     -0.6819
               3       Vir  Alpha       3 (A)      0.2872
               5       Vir  Alpha       5 (A)      2.0868
               3       Vir  Beta        3 (A)      0.2872
               5       Vir  Beta        5 (A)      2.0868


 EOMEE-CCSD transition 11/A
 Total energy = 1.75333976 a.u.  Excitation energy = 77.1604 eV.
 R1^2 = 0.0416  R2^2 = 0.9584  Res^2 = 4.55e-28

 Amplitude    Transitions between orbitals
  0.6569       1 (A) A       1 (A) B     ->    2 (A) A       5 (A) B      
 -0.6569       1 (A) A       1 (A) B     ->    5 (A) B       2 (A) A      
 -0.6569       1 (A) B       1 (A) A     ->    2 (A) A       5 (A) B      
  0.6569       1 (A) B       1 (A) A     ->    2 (A) B       5 (A) A      
  0.6569       1 (A) A       1 (A) B     ->    5 (A) A       2 (A) B      
 -0.6569       1 (A) A       1 (A) B     ->    2 (A) B       5 (A) A      
 -0.6569       1 (A) B       1 (A) A     ->    5 (A) A       2 (A) B      
  0.6569       1 (A) B       1 (A) A     ->    5 (A) B       2 (A) A      
  0.1951       1 (A) A       1 (A) B     ->    5 (A) A       4 (A) B      
 -0.1951       1 (A) A       1 (A) B     ->    4 (A) B       5 (A) A      
 -0.1951       1 (A) B       1 (A) A     ->    5 (A) A       4 (A) B      
  0.1951       1 (A) B       1 (A) A     ->    5 (A) B       4 (A) A      
  0.1951       1 (A) A       1 (A) B     ->    4 (A) A       5 (A) B      
 -0.1951       1 (A) A       1 (A) B     ->    5 (A) B       4 (A) A      
 -0.1951       1 (A) B       1 (A) A     ->    4 (A) A       5 (A) B      
  0.1951       1 (A) B       1 (A) A     ->    4 (A) B       5 (A) A      

              Summary of significant orbitals:

               Number  Type             Irrep      Energy
               1       Occ  Alpha       1 (A)     -0.6819
               1       Occ  Beta        1 (A)     -0.6819
               2       Vir  Alpha       2 (A)      0.1995
               4       Vir  Alpha       4 (A)      0.7668
               5       Vir  Alpha       5 (A)      2.0868
               2       Vir  Beta        2 (A)      0.1995
               4       Vir  Beta        4 (A)      0.7668
               5       Vir  Beta        5 (A)      2.0868


 EOMEE-CCSD transition 12/A
 Total energy = 1.89622330 a.u.  Excitation energy = 81.0485 eV.
 R1^2 = 0.0018  R2^2 = 0.9982  Res^2 = 5.08e-25

 Amplitude    Transitions between orbitals
  0.6932       1 (A) A       1 (A) B     ->    5 (A) A       3 (A) B      
 -0.6932       1 (A) A       1 (A) B     ->    3 (A) B       5 (A) A      
 -0.6932       1 (A) B       1 (A) A     ->    5 (A) A       3 (A) B      
  0.6932       1 (A) B       1 (A) A     ->    5 (A) B       3 (A) A      
  0.6932       1 (A) A       1 (A) B     ->    3 (A) A       5 (A) B      
 -0.6932       1 (A) A       1 (A) B     ->    5 (A) B       3 (A) A      
 -0.6932       1 (A) B       1 (A) A     ->    3 (A) A       5 (A) B      
  0.6932       1 (A) B       1 (A) A     ->    3 (A) B       5 (A) A      
  0.1672       1 (A) A       1 (A) B     ->    3 (A) A       3 (A) B      
 -0.1672       1 (A) A       1 (A) B     ->    3 (A) B       3 (A) A      
 -0.1672       1 (A) B       1 (A) A     ->    3 (A) A       3 (A) B      
  0.1672       1 (A) B       1 (A) A     ->    3 (A) B       3 (A) A      

              Summary of significant orbitals:

               Number  Type             Irrep      Energy
               1       Occ  Alpha       1 (A)     -0.6819
               1       Occ  Beta        1 (A)     -0.6819
               3       Vir  Alpha       3 (A)      0.2872
               5       Vir  Alpha       5 (A)      2.0868
               3       Vir  Beta        3 (A)      0.2872
               5       Vir  Beta        5 (A)      2.0868


           Solving for EOMEE-CCSD A triplet states.

      EOMEE-CCSD right amplitudes will be solved using Davidson.
      Roots     MaxVec    MaxIter   Precond   Conv      Thresh    Shift    
      12        60        60        0         1.00e-05  1.00e-05  0.00e+00  
 ------------------------------------------------------------------------------
         Vec  Conv   RNorm       Current eigenvalues (eV)
 ------------------------------------------------------------------------------
          13     0  3.05e-03    14.0746    16.1927    25.5402    39.5680 
                                47.6031    51.0007    56.8990    76.8009 
                                78.4004    86.5462    88.2055   104.6074 
     1    15    12  1.65e-28    14.0686*   16.1876*   25.5295*   39.5660*
                                47.5901*   50.9995*   56.8259*   76.7915*
                                78.3907*   86.4603*   88.0877*  103.9750*
     2    12     0  0.00e+00 
 ------------------------------------------------------------------------------

 EOMEE-CCSD transition 1/A
 Total energy = -0.56524088 a.u.  Excitation energy = 14.0686 eV.
 R1^2 = 0.9832  R2^2 = 0.0168  Res^2 = 4.44e-30

 Amplitude    Transitions between orbitals
 -0.6722       1 (A) A                   ->    2 (A) A                    
  0.6722       1 (A) B                   ->    2 (A) B                    
 -0.1987       1 (A) A                   ->    4 (A) A                    
  0.1987       1 (A) B                   ->    4 (A) B                    

              Summary of significant orbitals:

               Number  Type             Irrep      Energy
               1       Occ  Alpha       1 (A)     -0.6819
               1       Occ  Beta        1 (A)     -0.6819
               2       Vir  Alpha       2 (A)      0.1995
               4       Vir  Alpha       4 (A)      0.7668
               2       Vir  Beta        2 (A)      0.1995
               4       Vir  Beta        4 (A)      0.7668


 EOMEE-CCSD transition 2/A
 Total energy = -0.48737093 a.u.  Excitation energy = 16.1876 eV.
 R1^2 = 0.9948  R2^2 = 0.0052  Res^2 = 6.06e-30

 Amplitude    Transitions between orbitals
  0.7025       1 (A) A                   ->    3 (A) A                    
 -0.7025       1 (A) B                   ->    3 (A) B                    
 -0.0621       1 (A) A                   ->    5 (A) A                    
  0.0621       1 (A) B                   ->    5 (A) B                    

              Summary of significant orbitals:

               Number  Type             Irrep      Energy
               1       Occ  Alpha       1 (A)     -0.6819
               1       Occ  Beta        1 (A)     -0.6819
               3       Vir  Alpha       3 (A)      0.2872
               5       Vir  Alpha       5 (A)      2.0868
               3       Vir  Beta        3 (A)      0.2872
               5       Vir  Beta        5 (A)      2.0868


 EOMEE-CCSD transition 3/A
 Total energy = -0.14406123 a.u.  Excitation energy = 25.5295 eV.
 R1^2 = 0.9793  R2^2 = 0.0207  Res^2 = 5.65e-30

 Amplitude    Transitions between orbitals
  0.6710       1 (A) A                   ->    4 (A) A                    
 -0.6710       1 (A) B                   ->    4 (A) B                    
 -0.1927       1 (A) A                   ->    2 (A) A                    
  0.1927       1 (A) B                   ->    2 (A) B                    

              Summary of significant orbitals:

               Number  Type             Irrep      Energy
               1       Occ  Alpha       1 (A)     -0.6819
               1       Occ  Beta        1 (A)     -0.6819
               2       Vir  Alpha       2 (A)      0.1995
               4       Vir  Alpha       4 (A)      0.7668
               2       Vir  Beta        2 (A)      0.1995
               4       Vir  Beta        4 (A)      0.7668


 EOMEE-CCSD transition 4/A
 Total energy = 0.37177150 a.u.  Excitation energy = 39.5660 eV.
 R1^2 = 0.0119  R2^2 = 0.9881  Res^2 = 1.60e-29

 Amplitude    Transitions between orbitals
 -0.6402       1 (A) A       1 (A) B     ->    2 (A) A       3 (A) B      
  0.6402       1 (A) A       1 (A) B     ->    3 (A) B       2 (A) A      
  0.6402       1 (A) B       1 (A) A     ->    2 (A) A       3 (A) B      
  0.6402       1 (A) B       1 (A) A     ->    2 (A) B       3 (A) A      
  0.6402       1 (A) A       1 (A) B     ->    3 (A) A       2 (A) B      
 -0.6402       1 (A) A       1 (A) B     ->    2 (A) B       3 (A) A      
 -0.6402       1 (A) B       1 (A) A     ->    3 (A) A       2 (A) B      
 -0.6402       1 (A) B       1 (A) A     ->    3 (A) B       2 (A) A      
  0.2773       1 (A) A       1 (A) B     ->    3 (A) A       4 (A) B      
 -0.2773       1 (A) A       1 (A) B     ->    4 (A) B       3 (A) A      
 -0.2773       1 (A) B       1 (A) A     ->    3 (A) A       4 (A) B      
 -0.2773       1 (A) B       1 (A) A     ->    3 (A) B       4 (A) A      
 -0.2773       1 (A) A       1 (A) B     ->    4 (A) A       3 (A) B      
  0.2773       1 (A) A       1 (A) B     ->    3 (A) B       4 (A) A      
  0.2773       1 (A) B       1 (A) A     ->    4 (A) A       3 (A) B      
  0.2773       1 (A) B       1 (A) A     ->    4 (A) B       3 (A) A      

              Summary of significant orbitals:

               Number  Type             Irrep      Energy
               1       Occ  Alpha       1 (A)     -0.6819
               1       Occ  Beta        1 (A)     -0.6819
               2       Vir  Alpha       2 (A)      0.1995
               3       Vir  Alpha       3 (A)      0.2872
               4       Vir  Alpha       4 (A)      0.7668
               2       Vir  Beta        2 (A)      0.1995
               3       Vir  Beta        3 (A)      0.2872
               4       Vir  Beta        4 (A)      0.7668


 EOMEE-CCSD transition 5/A
 Total energy = 0.66665003 a.u.  Excitation energy = 47.5901 eV.
 R1^2 = 0.0010  R2^2 = 0.9990  Res^2 = 2.02e-28

 Amplitude    Transitions between orbitals
 -0.7020       1 (A) A       1 (A) B     ->    4 (A) A       2 (A) B      
  0.7020       1 (A) A       1 (A) B     ->    2 (A) B       4 (A) A      
  0.7020       1 (A) B       1 (A) A     ->    4 (A) A       2 (A) B      
  0.7020       1 (A) B       1 (A) A     ->    4 (A) B       2 (A) A      
  0.7020       1 (A) A       1 (A) B     ->    2 (A) A       4 (A) B      
 -0.7020       1 (A) A       1 (A) B     ->    4 (A) B       2 (A) A      
 -0.7020       1 (A) B       1 (A) A     ->    2 (A) A       4 (A) B      
 -0.7020       1 (A) B       1 (A) A     ->    2 (A) B       4 (A) A      

              Summary of significant orbitals:

               Number  Type             Irrep      Energy
               1       Occ  Alpha       1 (A)     -0.6819
               1       Occ  Beta        1 (A)     -0.6819
               2       Vir  Alpha       2 (A)      0.1995
               4       Vir  Alpha       4 (A)      0.7668
               2       Vir  Beta        2 (A)      0.1995
               4       Vir  Beta        4 (A)      0.7668


 EOMEE-CCSD transition 6/A
 Total energy = 0.79194267 a.u.  Excitation energy = 50.9995 eV.
 R1^2 = 0.0207  R2^2 = 0.9793  Res^2 = 8.13e-29

 Amplitude    Transitions between orbitals
  0.6374       1 (A) A       1 (A) B     ->    3 (A) A       4 (A) B      
 -0.6374       1 (A) A       1 (A) B     ->    4 (A) A       3 (A) B      
 -0.6374       1 (A) A       1 (A) B     ->    4 (A) B       3 (A) A      
  0.6374       1 (A) A       1 (A) B     ->    3 (A) B       4 (A) A      
 -0.6374       1 (A) B       1 (A) A     ->    3 (A) A       4 (A) B      
  0.6374       1 (A) B       1 (A) A     ->    4 (A) A       3 (A) B      
 -0.6374       1 (A) B       1 (A) A     ->    3 (A) B       4 (A) A      
  0.6374       1 (A) B       1 (A) A     ->    4 (A) B       3 (A) A      
 -0.2707       1 (A) A       1 (A) B     ->    3 (A) A       2 (A) B      
  0.2707       1 (A) A       1 (A) B     ->    2 (A) B       3 (A) A      
  0.2707       1 (A) B       1 (A) A     ->    3 (A) A       2 (A) B      
  0.2707       1 (A) B       1 (A) A     ->    3 (A) B       2 (A) A      
  0.2707       1 (A) A       1 (A) B     ->    2 (A) A       3 (A) B      
 -0.2707       1 (A) A       1 (A) B     ->    3 (A) B       2 (A) A      
 -0.2707       1 (A) B       1 (A) A     ->    2 (A) A       3 (A) B      
 -0.2707       1 (A) B       1 (A) A     ->    2 (A) B       3 (A) A      

              Summary of significant orbitals:

               Number  Type             Irrep      Energy
               1       Occ  Alpha       1 (A)     -0.6819
               1       Occ  Beta        1 (A)     -0.6819
               2       Vir  Alpha       2 (A)      0.1995
               3       Vir  Alpha       3 (A)      0.2872
               4       Vir  Alpha       4 (A)      0.7668
               2       Vir  Beta        2 (A)      0.1995
               3       Vir  Beta        3 (A)      0.2872
               4       Vir  Beta        4 (A)      0.7668


 EOMEE-CCSD transition 7/A
 Total energy = 1.00605930 a.u.  Excitation energy = 56.8259 eV.
 R1^2 = 0.9861  R2^2 = 0.0139  Res^2 = 6.30e-30

 Amplitude    Transitions between orbitals
 -0.6998       1 (A) A                   ->    5 (A) A                    
  0.6998       1 (A) B                   ->    5 (A) B                    
 -0.0572       1 (A) A                   ->    3 (A) A                    
  0.0572       1 (A) B                   ->    3 (A) B                    

              Summary of significant orbitals:

               Number  Type             Irrep      Energy
               1       Occ  Alpha       1 (A)     -0.6819
               1       Occ  Beta        1 (A)     -0.6819
               3       Vir  Alpha       3 (A)      0.2872
               5       Vir  Alpha       5 (A)      2.0868
               3       Vir  Beta        3 (A)      0.2872
               5       Vir  Beta        5 (A)      2.0868


 EOMEE-CCSD transition 8/A
 Total energy = 1.73978192 a.u.  Excitation energy = 76.7915 eV.
 R1^2 = 0.0062  R2^2 = 0.9938  Res^2 = 9.97e-29

 Amplitude    Transitions between orbitals
 -0.6711       1 (A) A       1 (A) B     ->    2 (A) A       5 (A) B      
  0.6711       1 (A) A       1 (A) B     ->    5 (A) A       2 (A) B      
  0.6711       1 (A) A       1 (A) B     ->    5 (A) B       2 (A) A      
 -0.6711       1 (A) A       1 (A) B     ->    2 (A) B       5 (A) A      
  0.6711       1 (A) B       1 (A) A     ->    2 (A) A       5 (A) B      
 -0.6711       1 (A) B       1 (A) A     ->    5 (A) A       2 (A) B      
  0.6711       1 (A) B       1 (A) A     ->    2 (A) B       5 (A) A      
 -0.6711       1 (A) B       1 (A) A     ->    5 (A) B       2 (A) A      
 -0.1962       1 (A) A       1 (A) B     ->    4 (A) A       5 (A) B      
  0.1962       1 (A) A       1 (A) B     ->    5 (A) B       4 (A) A      
  0.1962       1 (A) B       1 (A) A     ->    4 (A) A       5 (A) B      
  0.1962       1 (A) B       1 (A) A     ->    4 (A) B       5 (A) A      
  0.1962       1 (A) A       1 (A) B     ->    5 (A) A       4 (A) B      
 -0.1962       1 (A) A       1 (A) B     ->    4 (A) B       5 (A) A      
 -0.1962       1 (A) B       1 (A) A     ->    5 (A) A       4 (A) B      
 -0.1962       1 (A) B       1 (A) A     ->    5 (A) B       4 (A) A      

              Summary of significant orbitals:

               Number  Type             Irrep      Energy
               1       Occ  Alpha       1 (A)     -0.6819
               1       Occ  Beta        1 (A)     -0.6819
               2       Vir  Alpha       2 (A)      0.1995
               4       Vir  Alpha       4 (A)      0.7668
               5       Vir  Alpha       5 (A)      2.0868
               2       Vir  Beta        2 (A)      0.1995
               4       Vir  Beta        4 (A)      0.7668
               5       Vir  Beta        5 (A)      2.0868


 EOMEE-CCSD transition 9/A
 Total energy = 1.79855294 a.u.  Excitation energy = 78.3907 eV.
 R1^2 = 0.0163  R2^2 = 0.9837  Res^2 = 5.34e-30

 Amplitude    Transitions between orbitals
 -0.7009       1 (A) A       1 (A) B     ->    3 (A) A       5 (A) B      
  0.7009       1 (A) A       1 (A) B     ->    5 (A) A       3 (A) B      
  0.7009       1 (A) A       1 (A) B     ->    5 (A) B       3 (A) A      
 -0.7009       1 (A) A       1 (A) B     ->    3 (A) B       5 (A) A      
  0.7009       1 (A) B       1 (A) A     ->    3 (A) A       5 (A) B      
 -0.7009       1 (A) B       1 (A) A     ->    5 (A) A       3 (A) B      
  0.7009       1 (A) B       1 (A) A     ->    3 (A) B       5 (A) A      
 -0.7009       1 (A) B       1 (A) A     ->    5 (A) B       3 (A) A      

              Summary of significant orbitals:

               Number  Type             Irrep      Energy
               1       Occ  Alpha       1 (A)     -0.6819
               1       Occ  Beta        1 (A)     -0.6819
               3       Vir  Alpha       3 (A)      0.2872
               5       Vir  Alpha       5 (A)      2.0868
               3       Vir  Beta        3 (A)      0.2872
               5       Vir  Beta        5 (A)      2.0868


 EOMEE-CCSD transition 10/A
 Total energy = 2.09510287 a.u.  Excitation energy = 86.4603 eV.
 R1^2 = 0.9492  R2^2 = 0.0508  Res^2 = 1.02e-28

 Amplitude    Transitions between orbitals
  0.6867       1 (A) A                   ->    6 (A) A                    
 -0.6867       1 (A) B                   ->    6 (A) B                    
 -0.0550       1 (A) A                   ->    4 (A) A                    
  0.0550       1 (A) B                   ->    4 (A) B                    

              Summary of significant orbitals:

               Number  Type             Irrep      Energy
               1       Occ  Alpha       1 (A)     -0.6819
               1       Occ  Beta        1 (A)     -0.6819
               4       Vir  Alpha       4 (A)      0.7668
               6       Vir  Alpha       6 (A)      3.2784
               4       Vir  Beta        4 (A)      0.7668
               6       Vir  Beta        6 (A)      3.2784


 EOMEE-CCSD transition 11/A
 Total energy = 2.15491192 a.u.  Excitation energy = 88.0877 eV.
 R1^2 = 0.0448  R2^2 = 0.9552  Res^2 = 5.61e-28

 Amplitude    Transitions between orbitals
  0.6619       1 (A) A       1 (A) B     ->    4 (A) A       5 (A) B      
 -0.6619       1 (A) A       1 (A) B     ->    5 (A) B       4 (A) A      
 -0.6619       1 (A) B       1 (A) A     ->    4 (A) A       5 (A) B      
 -0.6619       1 (A) B       1 (A) A     ->    4 (A) B       5 (A) A      
 -0.6619       1 (A) A       1 (A) B     ->    5 (A) A       4 (A) B      
  0.6619       1 (A) A       1 (A) B     ->    4 (A) B       5 (A) A      
  0.6619       1 (A) B       1 (A) A     ->    5 (A) A       4 (A) B      
  0.6619       1 (A) B       1 (A) A     ->    5 (A) B       4 (A) A      
 -0.1813       1 (A) A       1 (A) B     ->    2 (A) A       5 (A) B      
  0.1813       1 (A) A       1 (A) B     ->    5 (A) B       2 (A) A      
  0.1813       1 (A) B       1 (A) A     ->    2 (A) A       5 (A) B      
  0.1813       1 (A) B       1 (A) A     ->    2 (A) B       5 (A) A      
  0.1813       1 (A) A       1 (A) B     ->    5 (A) A       2 (A) B      
 -0.1813       1 (A) A       1 (A) B     ->    2 (A) B       5 (A) A      
 -0.1813       1 (A) B       1 (A) A     ->    5 (A) A       2 (A) B      
 -0.1813       1 (A) B       1 (A) A     ->    5 (A) B       2 (A) A      

              Summary of significant orbitals:

               Number  Type             Irrep      Energy
               1       Occ  Alpha       1 (A)     -0.6819
               1       Occ  Beta        1 (A)     -0.6819
               2       Vir  Alpha       2 (A)      0.1995
               4       Vir  Alpha       4 (A)      0.7668
               5       Vir  Alpha       5 (A)      2.0868
               2       Vir  Beta        2 (A)      0.1995
               4       Vir  Beta        4 (A)      0.7668
               5       Vir  Beta        5 (A)      2.0868


 EOMEE-CCSD transition 12/A
 Total energy = 2.73875907 a.u.  Excitation energy = 103.9750 eV.
 R1^2 = 0.0010  R2^2 = 0.9990  Res^2 = 8.88e-28

 Amplitude    Transitions between orbitals
 -0.6820       1 (A) A       1 (A) B     ->    2 (A) A       6 (A) B      
  0.6820       1 (A) A       1 (A) B     ->    6 (A) B       2 (A) A      
  0.6820       1 (A) B       1 (A) A     ->    2 (A) A       6 (A) B      
  0.6820       1 (A) B       1 (A) A     ->    2 (A) B       6 (A) A      
  0.6820       1 (A) A       1 (A) B     ->    6 (A) A       2 (A) B      
 -0.6820       1 (A) A       1 (A) B     ->    2 (A) B       6 (A) A      
 -0.6820       1 (A) B       1 (A) A     ->    6 (A) A       2 (A) B      
 -0.6820       1 (A) B       1 (A) A     ->    6 (A) B       2 (A) A      
  0.1691       1 (A) A       1 (A) B     ->    6 (A) A       4 (A) B      
 -0.1691       1 (A) A       1 (A) B     ->    4 (A) B       6 (A) A      
 -0.1691       1 (A) B       1 (A) A     ->    6 (A) A       4 (A) B      
 -0.1691       1 (A) B       1 (A) A     ->    6 (A) B       4 (A) A      
 -0.1691       1 (A) A       1 (A) B     ->    4 (A) A       6 (A) B      
  0.1691       1 (A) A       1 (A) B     ->    6 (A) B       4 (A) A      
  0.1691       1 (A) B       1 (A) A     ->    4 (A) A       6 (A) B      
  0.1691       1 (A) B       1 (A) A     ->    4 (A) B       6 (A) A      

              Summary of significant orbitals:

               Number  Type             Irrep      Energy
               1       Occ  Alpha       1 (A)     -0.6819
               1       Occ  Beta        1 (A)     -0.6819
               2       Vir  Alpha       2 (A)      0.1995
               4       Vir  Alpha       4 (A)      0.7668
               6       Vir  Alpha       6 (A)      3.2784
               2       Vir  Beta        2 (A)      0.1995
               4       Vir  Beta        4 (A)      0.7668
               6       Vir  Beta        6 (A)      3.2784


 EOMEE-CCSD calculation:   CPU 2.93 s  wall 2.94 s

 Total ccman2 time:   CPU 3.96 s  wall 3.99 s

 Analysis of SCF Wavefunction
 
 --------------------------------------------------------------
                    Orbital Energies (a.u.)
 --------------------------------------------------------------
 
 Alpha MOs
 -- Occupied --
 -0.682
 -- Virtual --
  0.199   0.287   0.767   2.087   3.278
 --------------------------------------------------------------
 
          Ground-State Mulliken Net Atomic Charges

     Atom                 Charge (a.u.)
  ----------------------------------------
      1 H                    -0.000000
      2 H                     0.000000
  ----------------------------------------
  Sum of atomic charges =     0.000000

 -----------------------------------------------------------------
                    Cartesian Multipole Moments
 -----------------------------------------------------------------
    Charge (ESU x 10^10)
                 0.0000
    Dipole Moment (Debye)
         X       0.0000      Y       0.0000      Z       0.0000
       Tot       0.0000
    Quadrupole Moments (Debye-Ang)
        XX      -1.6807     XY       0.0000     YY      -1.6807
        XZ       0.0000     YZ       0.0000     ZZ      -1.4725
    Octopole Moments (Debye-Ang^2)
       XXX       0.0000    XXY       0.0000    XYY       0.0000
       YYY       0.0000    XXZ       0.0000    XYZ       0.0000
       YYZ       0.0000    XZZ       0.0000    YZZ       0.0000
       ZZZ       0.0000
    Hexadecapole Moments (Debye-Ang^3)
      XXXX      -1.4180   XXXY       0.0000   XXYY      -0.4727
      XYYY       0.0000   YYYY      -1.4180   XXXZ       0.0000
      XXYZ       0.0000   XYYZ       0.0000   YYYZ       0.0000
      XXZZ      -0.5366   XYZZ       0.0000   YYZZ      -0.5366
      XZZZ       0.0000   YZZZ       0.0000   ZZZZ      -1.7868
 -----------------------------------------------------------------
Archival summary:
1\1\v7\SP\ProcedureUnspecified\BasisUnspecified\2\alex\WedJul2915:11:462015WedJul2915:11:462015\0\\#,ProcedureUnspecified,BasisUnspecified,\\0,1\H\H,1,0.5\\HF=-1.06010365\\@

 Total job time:  4.18s(wall), 4.14s(cpu) 
 Wed Jul 29 15:11:46 2015

        *************************************************************
        *                                                           *
        *  Thank you very much for using Q-Chem.  Have a nice day.  *
        *                                                           *
        *************************************************************


0 sent ACK to 0 
now end server 0 ... 
Job 2 of 21 
Process 0 of 1 is on v7 - thread support 0
initial socket setup ...start
initial socket setup ...done 
now start server 0 ... 
                  Welcome to Q-Chem
     A Quantum Leap Into The Future Of Chemistry


 Q-Chem 4.2, Q-Chem, Inc., Pleasanton, CA (2014).

 Y. Shao,  Z. Gan,  E. Epifanovsky,  A. T. B. Gilbert,  M. Wormit,  
 J. Kussmann,  A. W. Lange,  A. Behn,  J. Deng,  X. Feng,  D. Ghosh,  
 M. Goldey,  P. R. Horn,  L. D. Jacobson,  I. Kaliman,  R. Z. Khaliullin,  
 T. Kus,  A. Landau,  J. Liu,  E. I. Proynov,  Y. M. Rhee,  R. M. Richard,  
 M. A. Rohrdanz,  R. P. Steele,  E. J. Sundstrom,  H. L. Woodcock III,  
 P. M. Zimmerman,  D. Zuev,  B. Albrecht,  E. Alguire,  B. Austin,  
 G. J. O. Beran,  Y. A. Bernard,  E. Berquist,  K. Brandhorst,  
 K. B. Bravaya,  S. T. Brown,  D. Casanova,  C.-M. Chang,  Y. Chen,  
 S. H. Chien,  K. D. Closser,  D. L. Crittenden,  M. Diedenhofen,  
 R. A. DiStasio Jr.,  H. Do,  A. D. Dutoi,  R. G. Edgar,  S. Fatehi,  
 L. Fusti-Molnar,  A. Ghysels,  A. Golubeva-Zadorozhnaya,  J. Gomes,  
 M. W. D. Hanson-Heine,  P. H. P. Harbach,  A. W. Hauser,  E. G. Hohenstein,  
 Z. C. Holden,  T.-C. Jagau,  H. Ji,  B. Kaduk,  K. Khistyaev,  Jaehoon Kim,  
 Jihan Kim,  R. A. King,  P. Klunzinger,  D. Kosenkov,  T. Kowalczyk,  
 C. M. Krauter,  K. U. Lao,  A. Laurent,  K. V. Lawler,  S. V. Levchenko,  
 C. Y. Lin,  F. Liu,  E. Livshits,  R. C. Lochan,  A. Luenser,  P. Manohar,  
 S. F. Manzer,  S.-P. Mao,  N. Mardirossian,  A. V. Marenich,  S. A. Maurer,  
 N. J. Mayhall,  C. M. Oana,  R. Olivares-Amaya,  D. P. O'Neill,  
 J. A. Parkhill,  T. M. Perrine,  R. Peverati,  P. A. Pieniazek,  A. Prociuk,  
 D. R. Rehn,  E. Rosta,  N. J. Russ,  N. Sergueev,  S. M. Sharada,  
 S. Sharma,  D. W. Small,  A. Sodt,  T. Stein,  D. Stuck,  Y.-C. Su,  
 A. J. W. Thom,  T. Tsuchimochi,  L. Vogt,  O. Vydrov,  T. Wang,  
 M. A. Watson,  J. Wenzel,  A. White,  C. F. Williams,  V. Vanovschi,  
 S. Yeganeh,  S. R. Yost,  Z.-Q. You,  I. Y. Zhang,  X. Zhang,  Y. Zhao,  
 B. R. Brooks,  G. K. L. Chan,  D. M. Chipman,  C. J. Cramer,  
 W. A. Goddard III,  M. S. Gordon,  W. J. Hehre,  A. Klamt,  
 H. F. Schaefer III,  M. W. Schmidt,  C. D. Sherrill,  D. G. Truhlar,  
 A. Warshel,  X. Xu,  A. Aspuru-Guzik,  R. Baer,  A. T. Bell,  N. A. Besley,  
 J.-D. Chai,  A. Dreuw,  B. D. Dunietz,  T. R. Furlani,  S. R. Gwaltney,  
 C.-P. Hsu,  Y. Jung,  J. Kong,  D. S. Lambrecht,  W. Liang,  C. Ochsenfeld,  
 V. A. Rassolov,  L. V. Slipchenko,  J. E. Subotnik,  T. Van Voorhis,  
 J. M. Herbert,  A. I. Krylov,  P. M. W. Gill,  M. Head-Gordon

 Contributors to earlier versions of Q-Chem not listed above: 
 R. D. Adamson,  J. Baker,  E. F. C. Byrd,  A. K. Chakraborty,  C.-L. Cheng,  
 H. Dachsel,  R. J. Doerksen,  G. Hawkins,  A. Heyden,  S. Hirata,  
 G. Kedziora,  F. J. Keil,  C. Kelley,  P. P. Korambath,  W. Kurlancheek,  
 A. M. Lee,  M. S. Lee,  D. Liotard,  I. Lotan,  P. E. Maslen,  N. Nair,  
 D. Neuhauser,  R. Olson,  B. Peters,  J. Ritchie,  N. E. Schultz,  
 N. Shenvi,  A. C. Simmonett,  K. S. Thanthiriwatte,  Q. Wu,  W. Zhang

 Q-Chem 4.2.0 for Intel X86 EM64T Linux

 Parts of Q-Chem use Armadillo 4.100.2 (Dirt Cruiser).
 http://arma.sourceforge.net/

 Q-Chem begins on Wed Jul 29 15:11:48 2015  

Host: v7
0

     Scratch files written to /tmp1/alex/132103/qchem24705//
 Jun2414 |opt|qchem|4.2|qc42|libmdc|qstr_info.C -1
 Parallel job on  1  processors
Finally everything over in PARseQInput

--------------------------------------------------------------
User input:
--------------------------------------------------------------

$molecule
0 1
H 0.0 0.0 0.0
H 0.0 0.0 0.6
$end

$rem
method      eom-ccsd
basis       6-311G
cc_symmetry false
ee_singlets [12]
ee_triplets [12]
$end

--------------------------------------------------------------
 ----------------------------------------------------------------
             Standard Nuclear Orientation (Angstroms)
    I     Atom           X                Y                Z
 ----------------------------------------------------------------
    1      H       0.0000000000     0.0000000000    -0.3000000000
    2      H       0.0000000000     0.0000000000     0.3000000000
 ----------------------------------------------------------------
 Molecular Point Group                 D*h   NOp =***
 Largest Abelian Subgroup              D2h   NOp =  1
 Nuclear Repulsion Energy =     0.8819620180 hartrees
 There are        1 alpha and        1 beta electrons
 Requested basis set is 6-311G
 There are 6 shells and 6 basis functions
Total memory of 1801MB is distributed as follows: 
   QALLOC including MEM_STATIC uses 1301MB
   MEM_STATIC is set to 301MB
   CCMAN JOB total memory use is  1500MB
Warning: actual memory use might exceed 1801MB

Total QAlloc Memory Limit   1301 MB
Mega-Array Size       295 MB
MEM_STATIC part       301 MB

                       Distance Matrix (Angstroms)
             H (  1)
   H (  2)  0.600000
 
 A cutoff of  1.0D-14 yielded     21 shell pairs
 There are        21 function pairs
 Smallest overlap matrix eigenvalue = 2.27E-02

  Scale SEOQF with 1.000000e+00/1.000000e+00/1.000000e+00

 Standard Electronic Orientation quadrupole field applied
 Nucleus-field energy     =    -0.0000000002 hartrees
 Guess from superposition of atomic densities
 Warning:  Energy on first SCF cycle will be non-variational
 A restricted Hartree-Fock SCF calculation will be
 performed using Pulay DIIS extrapolation
 SCF converges when DIIS error is below 1.0E-08
 ---------------------------------------
  Cycle       Energy         DIIS Error
 ---------------------------------------
    1      -0.8404011069      9.99E-02
    2      -1.1095977836      1.36E-02
    3      -1.1112612649      1.27E-03
    4      -1.1112774136      1.30E-04
    5      -1.1112776030      2.31E-07
    6      -1.1112776030      4.22E-08
    7      -1.1112776030      4.35E-09 Convergence criterion met
 ---------------------------------------
 SCF time:  CPU 0.02 s  wall 0.01 s
 SCF   energy in the final basis set = -1.1112776030
 Total energy in the final basis set = -1.1112776030


 ------------------------------------------------------------------------------

   CCMAN2: suite of methods based on coupled cluster
           and equation of motion theories.

   Components:
   * libvmm-1.2-release
     by Evgeny Epifanovsky, Ilya Kaliman.
   * libtensor-2.3-release
     by Evgeny Epifanovsky, Michael Wormit, Dmitry Zuev, Sam Manzer.
   * libcc-2.3-release
     by Evgeny Epifanovsky, Arik Landau, Tomasz Kus, Kirill Khistyaev, 
        Dmitry Zuev, Prashant Manohar, Xintian Feng, Anna Krylov, 
        Matthew Goldey, Alec White, Thomas Jagau.

   CCMAN original authors:
   Anna I. Krylov, C. David Sherrill, Steven R. Gwaltney,
   Edward F. C. Byrd (2000)
   Sergey V. Levchenko, Lyudmila V. Slipchenko, Tao Wang,
   Ana-Maria C. Cristian (2003)
   Piotr A. Pieniazek, C. Melania Oana, Evgeny Epifanovsky (2007)
   Prashant Manohar (2009)

 ------------------------------------------------------------------------------


 Calculation will run on 1 core with 1500MB of RAM.


 Occupation and symmetry of molecular orbitals

 Point group: C1 (1 irreducible representation).

                           A     All 
 -------------------------------------
 All molecular orbitals:
  - Alpha                  6     6   
  - Beta                   6     6   
 -------------------------------------
 Alpha orbitals:
  - Frozen occupied        0     0   
  - Active occupied        1     1   
  - Active virtual         5     5   
  - Frozen virtual         0     0   
 -------------------------------------
 Beta orbitals:
  - Frozen occupied        0     0   
  - Active occupied        1     1   
  - Active virtual         5     5   
  - Frozen virtual         0     0   
 -------------------------------------

 Import integrals:   CPU 0.00 s  wall 0.00 s

 
 Import integrals:   CPU 0.00 s  wall 0.00 s

 MP2 amplitudes:   CPU 0.00 s  wall 0.00 s

           CCSD T amplitudes will be solved using DIIS.

           Start     Size      MaxIter   EConv     TConv     
           3         7         100       1.0e-06   0.00010   
 ------------------------------------------------------------------------------
           Energy (a.u.)   Ediff      Tdiff       Comment
 ------------------------------------------------------------------------------
            -1.12828458                           
     1      -1.13263088   4.35e-03   1.04e-01     
     2      -1.13390468   1.27e-03   2.93e-02     
     3      -1.13430505   4.00e-04   9.42e-03     
     4      -1.13450182   1.97e-04   4.65e-03     Switched to DIIS steps.
     5      -1.13450152   3.07e-07   2.05e-04     
     6      -1.13450145   6.78e-08   1.35e-05     
 ------------------------------------------------------------------------------
            -1.13450145                           CCSD T converged.

 SCF energy                 = -1.11127760
 MP2 energy                 = -1.12828458
 CCSD correlation energy    = -0.02322385
 CCSD total energy          = -1.13450145

 CCSD  T1^2 = 0.0000  T2^2 = 0.0110.  Leading amplitudes:

 Amplitude    Orbitals with energies
 -0.0034       1 (A) A                   ->    5 (A) A                    
              -0.6429                          2.2165                     
 -0.0034       1 (A) B                   ->    5 (A) B                    
              -0.6429                          2.2165                     
  0.0006       1 (A) A                   ->    3 (A) A                    
              -0.6429                          0.2951                     
  0.0006       1 (A) B                   ->    3 (A) B                    
              -0.6429                          0.2951                     

 Amplitude    Orbitals with energies
 -0.0560       1 (A) A       1 (A) B     ->    4 (A) A       4 (A) B      
              -0.6429       -0.6429            0.7175        0.7175       
  0.0560       1 (A) A       1 (A) B     ->    4 (A) B       4 (A) A      
              -0.6429       -0.6429            0.7175        0.7175       
  0.0560       1 (A) B       1 (A) A     ->    4 (A) A       4 (A) B      
              -0.6429       -0.6429            0.7175        0.7175       
 -0.0560       1 (A) B       1 (A) A     ->    4 (A) B       4 (A) A      
              -0.6429       -0.6429            0.7175        0.7175       

 CCSD calculation:   CPU 0.34 s  wall 0.34 s

           Solving for EOMEE-CCSD A singlet states.

      EOMEE-CCSD right amplitudes will be solved using Davidson.
      Roots     MaxVec    MaxIter   Precond   Conv      Thresh    Shift    
      12        60        60        0         1.00e-05  1.00e-05  0.00e+00  
 ------------------------------------------------------------------------------
         Vec  Conv   RNorm       Current eigenvalues (eV)
 ------------------------------------------------------------------------------
          13     0  2.88e-02    14.9486    18.0943    28.7692    34.6994 
                                38.3876    41.3978    47.7607    49.5073 
                                57.1915    66.1332    78.2800    82.7588 
     1    20    12  1.96e-26    14.9332*   17.9449*   28.5216*   34.4561*
                                38.1760*   41.3318*   47.4117*   48.9044*
                                56.2882*   65.3186*   76.8613*   82.3572*
     2    12     0  0.00e+00 
 ------------------------------------------------------------------------------

 EOMEE-CCSD transition 1/A
 Total energy = -0.58571490 a.u.  Excitation energy = 14.9332 eV.
 R1^2 = 0.9672  R2^2 = 0.0328  Res^2 = 9.68e-30

 Amplitude    Transitions between orbitals
 -0.6950       1 (A) A                   ->    2 (A) A                    
 -0.6950       1 (A) B                   ->    2 (A) B                    
 -0.0223       1 (A) A                   ->    4 (A) A                    
 -0.0223       1 (A) B                   ->    4 (A) B                    

              Summary of significant orbitals:

               Number  Type             Irrep      Energy
               1       Occ  Alpha       1 (A)     -0.6429
               1       Occ  Beta        1 (A)     -0.6429
               2       Vir  Alpha       2 (A)      0.1882
               4       Vir  Alpha       4 (A)      0.7175
               2       Vir  Beta        2 (A)      0.1882
               4       Vir  Beta        4 (A)      0.7175


 EOMEE-CCSD transition 2/A
 Total energy = -0.47503699 a.u.  Excitation energy = 17.9449 eV.
 R1^2 = 0.9578  R2^2 = 0.0422  Res^2 = 3.47e-30

 Amplitude    Transitions between orbitals
  0.6920       1 (A) A                   ->    3 (A) A                    
  0.6920       1 (A) B                   ->    3 (A) B                    
  0.0006       1 (A) A                   ->    5 (A) A                    
  0.0006       1 (A) B                   ->    5 (A) B                    

              Summary of significant orbitals:

               Number  Type             Irrep      Energy
               1       Occ  Alpha       1 (A)     -0.6429
               1       Occ  Beta        1 (A)     -0.6429
               3       Vir  Alpha       3 (A)      0.2951
               5       Vir  Alpha       5 (A)      2.2165
               3       Vir  Beta        3 (A)      0.2951
               5       Vir  Beta        5 (A)      2.2165


 EOMEE-CCSD transition 3/A
 Total energy = -0.08635254 a.u.  Excitation energy = 28.5216 eV.
 R1^2 = 0.9829  R2^2 = 0.0171  Res^2 = 6.47e-30

 Amplitude    Transitions between orbitals
 -0.7010       1 (A) A                   ->    4 (A) A                    
 -0.7010       1 (A) B                   ->    4 (A) B                    
  0.0081       1 (A) A                   ->    2 (A) A                    
  0.0081       1 (A) B                   ->    2 (A) B                    

              Summary of significant orbitals:

               Number  Type             Irrep      Energy
               1       Occ  Alpha       1 (A)     -0.6429
               1       Occ  Beta        1 (A)     -0.6429
               2       Vir  Alpha       2 (A)      0.1882
               4       Vir  Alpha       4 (A)      0.7175
               2       Vir  Beta        2 (A)      0.1882
               4       Vir  Beta        4 (A)      0.7175


 EOMEE-CCSD transition 4/A
 Total energy = 0.13173694 a.u.  Excitation energy = 34.4561 eV.
 R1^2 = 0.0003  R2^2 = 0.9997  Res^2 = 1.13e-29

 Amplitude    Transitions between orbitals
  0.8504       1 (A) A       1 (A) B     ->    2 (A) A       2 (A) B      
 -0.8504       1 (A) A       1 (A) B     ->    2 (A) B       2 (A) A      
 -0.8504       1 (A) B       1 (A) A     ->    2 (A) A       2 (A) B      
  0.8504       1 (A) B       1 (A) A     ->    2 (A) B       2 (A) A      
  0.3517       1 (A) A       1 (A) B     ->    4 (A) A       2 (A) B      
 -0.3517       1 (A) A       1 (A) B     ->    2 (A) B       4 (A) A      
 -0.3517       1 (A) B       1 (A) A     ->    4 (A) A       2 (A) B      
  0.3517       1 (A) B       1 (A) A     ->    4 (A) B       2 (A) A      
  0.3517       1 (A) A       1 (A) B     ->    2 (A) A       4 (A) B      
 -0.3517       1 (A) A       1 (A) B     ->    4 (A) B       2 (A) A      
 -0.3517       1 (A) B       1 (A) A     ->    2 (A) A       4 (A) B      
  0.3517       1 (A) B       1 (A) A     ->    2 (A) B       4 (A) A      
 -0.1495       1 (A) A       1 (A) B     ->    3 (A) A       3 (A) B      
  0.1495       1 (A) A       1 (A) B     ->    3 (A) B       3 (A) A      
  0.1495       1 (A) B       1 (A) A     ->    3 (A) A       3 (A) B      
 -0.1495       1 (A) B       1 (A) A     ->    3 (A) B       3 (A) A      

              Summary of significant orbitals:

               Number  Type             Irrep      Energy
               1       Occ  Alpha       1 (A)     -0.6429
               1       Occ  Beta        1 (A)     -0.6429
               2       Vir  Alpha       2 (A)      0.1882
               3       Vir  Alpha       3 (A)      0.2951
               4       Vir  Alpha       4 (A)      0.7175
               2       Vir  Beta        2 (A)      0.1882
               3       Vir  Beta        3 (A)      0.2951
               4       Vir  Beta        4 (A)      0.7175


 EOMEE-CCSD transition 5/A
 Total energy = 0.26844257 a.u.  Excitation energy = 38.1760 eV.
 R1^2 = 0.0355  R2^2 = 0.9645  Res^2 = 6.02e-29

 Amplitude    Transitions between orbitals
 -0.5867       1 (A) A       1 (A) B     ->    2 (A) A       3 (A) B      
  0.5867       1 (A) A       1 (A) B     ->    3 (A) B       2 (A) A      
  0.5867       1 (A) B       1 (A) A     ->    2 (A) A       3 (A) B      
 -0.5867       1 (A) B       1 (A) A     ->    2 (A) B       3 (A) A      
 -0.5867       1 (A) A       1 (A) B     ->    3 (A) A       2 (A) B      
  0.5867       1 (A) A       1 (A) B     ->    2 (A) B       3 (A) A      
  0.5867       1 (A) B       1 (A) A     ->    3 (A) A       2 (A) B      
 -0.5867       1 (A) B       1 (A) A     ->    3 (A) B       2 (A) A      
 -0.3660       1 (A) A       1 (A) B     ->    4 (A) A       3 (A) B      
  0.3660       1 (A) A       1 (A) B     ->    3 (A) B       4 (A) A      
  0.3660       1 (A) B       1 (A) A     ->    4 (A) A       3 (A) B      
 -0.3660       1 (A) B       1 (A) A     ->    4 (A) B       3 (A) A      
 -0.3660       1 (A) A       1 (A) B     ->    3 (A) A       4 (A) B      
  0.3660       1 (A) A       1 (A) B     ->    4 (A) B       3 (A) A      
  0.3660       1 (A) B       1 (A) A     ->    3 (A) A       4 (A) B      
 -0.3660       1 (A) B       1 (A) A     ->    3 (A) B       4 (A) A      

              Summary of significant orbitals:

               Number  Type             Irrep      Energy
               1       Occ  Alpha       1 (A)     -0.6429
               1       Occ  Beta        1 (A)     -0.6429
               2       Vir  Alpha       2 (A)      0.1882
               3       Vir  Alpha       3 (A)      0.2951
               4       Vir  Alpha       4 (A)      0.7175
               2       Vir  Beta        2 (A)      0.1882
               3       Vir  Beta        3 (A)      0.2951
               4       Vir  Beta        4 (A)      0.7175


 EOMEE-CCSD transition 6/A
 Total energy = 0.38441437 a.u.  Excitation energy = 41.3318 eV.
 R1^2 = 0.0408  R2^2 = 0.9592  Res^2 = 1.91e-29

 Amplitude    Transitions between orbitals
  0.9466       1 (A) A       1 (A) B     ->    3 (A) A       3 (A) B      
 -0.9466       1 (A) A       1 (A) B     ->    3 (A) B       3 (A) A      
 -0.9466       1 (A) B       1 (A) A     ->    3 (A) A       3 (A) B      
  0.9466       1 (A) B       1 (A) A     ->    3 (A) B       3 (A) A      
  0.1429       1 (A) A       1 (A) B     ->    2 (A) A       4 (A) B      
 -0.1429       1 (A) A       1 (A) B     ->    4 (A) B       2 (A) A      
 -0.1429       1 (A) B       1 (A) A     ->    2 (A) A       4 (A) B      
  0.1429       1 (A) B       1 (A) A     ->    2 (A) B       4 (A) A      
  0.1429       1 (A) A       1 (A) B     ->    4 (A) A       2 (A) B      
 -0.1429       1 (A) A       1 (A) B     ->    2 (A) B       4 (A) A      
 -0.1429       1 (A) B       1 (A) A     ->    4 (A) A       2 (A) B      
  0.1429       1 (A) B       1 (A) A     ->    4 (A) B       2 (A) A      

              Summary of significant orbitals:

               Number  Type             Irrep      Energy
               1       Occ  Alpha       1 (A)     -0.6429
               1       Occ  Beta        1 (A)     -0.6429
               2       Vir  Alpha       2 (A)      0.1882
               3       Vir  Alpha       3 (A)      0.2951
               4       Vir  Alpha       4 (A)      0.7175
               2       Vir  Beta        2 (A)      0.1882
               3       Vir  Beta        3 (A)      0.2951
               4       Vir  Beta        4 (A)      0.7175


 EOMEE-CCSD transition 7/A
 Total energy = 0.60784668 a.u.  Excitation energy = 47.4117 eV.
 R1^2 = 0.0041  R2^2 = 0.9959  Res^2 = 2.22e-28

 Amplitude    Transitions between orbitals
 -0.5074       1 (A) A       1 (A) B     ->    2 (A) A       4 (A) B      
  0.5074       1 (A) A       1 (A) B     ->    4 (A) B       2 (A) A      
  0.5074       1 (A) B       1 (A) A     ->    2 (A) A       4 (A) B      
 -0.5074       1 (A) B       1 (A) A     ->    2 (A) B       4 (A) A      
 -0.5074       1 (A) A       1 (A) B     ->    4 (A) A       2 (A) B      
  0.5074       1 (A) A       1 (A) B     ->    2 (A) B       4 (A) A      
  0.5074       1 (A) B       1 (A) A     ->    4 (A) A       2 (A) B      
 -0.5074       1 (A) B       1 (A) A     ->    4 (A) B       2 (A) A      
 -0.4863       1 (A) A       1 (A) B     ->    4 (A) A       4 (A) B      
  0.4863       1 (A) A       1 (A) B     ->    4 (A) B       4 (A) A      
  0.4863       1 (A) B       1 (A) A     ->    4 (A) A       4 (A) B      
 -0.4863       1 (A) B       1 (A) A     ->    4 (A) B       4 (A) A      
  0.4709       1 (A) A       1 (A) B     ->    2 (A) A       2 (A) B      
 -0.4709       1 (A) A       1 (A) B     ->    2 (A) B       2 (A) A      
 -0.4709       1 (A) B       1 (A) A     ->    2 (A) A       2 (A) B      
  0.4709       1 (A) B       1 (A) A     ->    2 (A) B       2 (A) A      
  0.1222       1 (A) A       1 (A) B     ->    3 (A) A       3 (A) B      
 -0.1222       1 (A) A       1 (A) B     ->    3 (A) B       3 (A) A      
 -0.1222       1 (A) B       1 (A) A     ->    3 (A) A       3 (A) B      
  0.1222       1 (A) B       1 (A) A     ->    3 (A) B       3 (A) A      

              Summary of significant orbitals:

               Number  Type             Irrep      Energy
               1       Occ  Alpha       1 (A)     -0.6429
               1       Occ  Beta        1 (A)     -0.6429
               2       Vir  Alpha       2 (A)      0.1882
               3       Vir  Alpha       3 (A)      0.2951
               4       Vir  Alpha       4 (A)      0.7175
               2       Vir  Beta        2 (A)      0.1882
               3       Vir  Beta        3 (A)      0.2951
               4       Vir  Beta        4 (A)      0.7175


 EOMEE-CCSD transition 8/A
 Total energy = 0.66270403 a.u.  Excitation energy = 48.9044 eV.
 R1^2 = 0.0171  R2^2 = 0.9829  Res^2 = 4.79e-29

 Amplitude    Transitions between orbitals
 -0.5943       1 (A) A       1 (A) B     ->    4 (A) A       3 (A) B      
  0.5943       1 (A) A       1 (A) B     ->    3 (A) B       4 (A) A      
  0.5943       1 (A) B       1 (A) A     ->    4 (A) A       3 (A) B      
 -0.5943       1 (A) B       1 (A) A     ->    4 (A) B       3 (A) A      
 -0.5943       1 (A) A       1 (A) B     ->    3 (A) A       4 (A) B      
  0.5943       1 (A) A       1 (A) B     ->    4 (A) B       3 (A) A      
  0.5943       1 (A) B       1 (A) A     ->    3 (A) A       4 (A) B      
 -0.5943       1 (A) B       1 (A) A     ->    3 (A) B       4 (A) A      
  0.3567       1 (A) A       1 (A) B     ->    3 (A) A       2 (A) B      
 -0.3567       1 (A) A       1 (A) B     ->    2 (A) B       3 (A) A      
 -0.3567       1 (A) B       1 (A) A     ->    3 (A) A       2 (A) B      
  0.3567       1 (A) B       1 (A) A     ->    3 (A) B       2 (A) A      
  0.3567       1 (A) A       1 (A) B     ->    2 (A) A       3 (A) B      
 -0.3567       1 (A) A       1 (A) B     ->    3 (A) B       2 (A) A      
 -0.3567       1 (A) B       1 (A) A     ->    2 (A) A       3 (A) B      
  0.3567       1 (A) B       1 (A) A     ->    2 (A) B       3 (A) A      

              Summary of significant orbitals:

               Number  Type             Irrep      Energy
               1       Occ  Alpha       1 (A)     -0.6429
               1       Occ  Beta        1 (A)     -0.6429
               2       Vir  Alpha       2 (A)      0.1882
               3       Vir  Alpha       3 (A)      0.2951
               4       Vir  Alpha       4 (A)      0.7175
               2       Vir  Beta        2 (A)      0.1882
               3       Vir  Beta        3 (A)      0.2951
               4       Vir  Beta        4 (A)      0.7175


 EOMEE-CCSD transition 9/A
 Total energy = 0.93405121 a.u.  Excitation energy = 56.2882 eV.
 R1^2 = 0.0015  R2^2 = 0.9985  Res^2 = 6.12e-28

 Amplitude    Transitions between orbitals
 -0.8643       1 (A) A       1 (A) B     ->    4 (A) A       4 (A) B      
  0.8643       1 (A) A       1 (A) B     ->    4 (A) B       4 (A) A      
  0.8643       1 (A) B       1 (A) A     ->    4 (A) A       4 (A) B      
 -0.8643       1 (A) B       1 (A) A     ->    4 (A) B       4 (A) A      
  0.3005       1 (A) A       1 (A) B     ->    4 (A) A       2 (A) B      
 -0.3005       1 (A) A       1 (A) B     ->    2 (A) B       4 (A) A      
 -0.3005       1 (A) B       1 (A) A     ->    4 (A) A       2 (A) B      
  0.3005       1 (A) B       1 (A) A     ->    4 (A) B       2 (A) A      
  0.3005       1 (A) A       1 (A) B     ->    2 (A) A       4 (A) B      
 -0.3005       1 (A) A       1 (A) B     ->    4 (A) B       2 (A) A      
 -0.3005       1 (A) B       1 (A) A     ->    2 (A) A       4 (A) B      
  0.3005       1 (A) B       1 (A) A     ->    2 (A) B       4 (A) A      
 -0.2225       1 (A) A       1 (A) B     ->    2 (A) A       2 (A) B      
  0.2225       1 (A) A       1 (A) B     ->    2 (A) B       2 (A) A      
  0.2225       1 (A) B       1 (A) A     ->    2 (A) A       2 (A) B      
 -0.2225       1 (A) B       1 (A) A     ->    2 (A) B       2 (A) A      

              Summary of significant orbitals:

               Number  Type             Irrep      Energy
               1       Occ  Alpha       1 (A)     -0.6429
               1       Occ  Beta        1 (A)     -0.6429
               2       Vir  Alpha       2 (A)      0.1882
               4       Vir  Alpha       4 (A)      0.7175
               2       Vir  Beta        2 (A)      0.1882
               4       Vir  Beta        4 (A)      0.7175


 EOMEE-CCSD transition 10/A
 Total energy = 1.26591370 a.u.  Excitation energy = 65.3186 eV.
 R1^2 = 0.9762  R2^2 = 0.0238  Res^2 = 2.26e-26

 Amplitude    Transitions between orbitals
 -0.6986       1 (A) A                   ->    5 (A) A                    
 -0.6986       1 (A) B                   ->    5 (A) B                    
  0.0122       1 (A) A                   ->    3 (A) A                    
  0.0122       1 (A) B                   ->    3 (A) B                    

              Summary of significant orbitals:

               Number  Type             Irrep      Energy
               1       Occ  Alpha       1 (A)     -0.6429
               1       Occ  Beta        1 (A)     -0.6429
               3       Vir  Alpha       3 (A)      0.2951
               5       Vir  Alpha       5 (A)      2.2165
               3       Vir  Beta        3 (A)      0.2951
               5       Vir  Beta        5 (A)      2.2165


 EOMEE-CCSD transition 11/A
 Total energy = 1.69009923 a.u.  Excitation energy = 76.8613 eV.
 R1^2 = 0.1895  R2^2 = 0.8105  Res^2 = 1.55e-28

 Amplitude    Transitions between orbitals
 -0.5873       1 (A) A       1 (A) B     ->    5 (A) A       2 (A) B      
  0.5873       1 (A) A       1 (A) B     ->    2 (A) B       5 (A) A      
  0.5873       1 (A) B       1 (A) A     ->    5 (A) A       2 (A) B      
 -0.5873       1 (A) B       1 (A) A     ->    5 (A) B       2 (A) A      
 -0.5873       1 (A) A       1 (A) B     ->    2 (A) A       5 (A) B      
  0.5873       1 (A) A       1 (A) B     ->    5 (A) B       2 (A) A      
  0.5873       1 (A) B       1 (A) A     ->    2 (A) A       5 (A) B      
 -0.5873       1 (A) B       1 (A) A     ->    2 (A) B       5 (A) A      
 -0.2326       1 (A) A       1 (A) B     ->    4 (A) A       5 (A) B      
  0.2326       1 (A) A       1 (A) B     ->    5 (A) B       4 (A) A      
  0.2326       1 (A) B       1 (A) A     ->    4 (A) A       5 (A) B      
 -0.2326       1 (A) B       1 (A) A     ->    4 (A) B       5 (A) A      
 -0.2326       1 (A) A       1 (A) B     ->    5 (A) A       4 (A) B      
  0.2326       1 (A) A       1 (A) B     ->    4 (A) B       5 (A) A      
  0.2326       1 (A) B       1 (A) A     ->    5 (A) A       4 (A) B      
 -0.2326       1 (A) B       1 (A) A     ->    5 (A) B       4 (A) A      

              Summary of significant orbitals:

               Number  Type             Irrep      Energy
[...]
  0.1485       1 (A) A                   ->    2 (A) A                    
 -0.1485       1 (A) B                   ->    2 (A) B                    

              Summary of significant orbitals:

               Number  Type             Irrep      Energy
               1       Occ  Alpha       1 (A)     -0.3548
               1       Occ  Beta        1 (A)     -0.3548
               2       Vir  Alpha       2 (A)     -0.0928
               4       Vir  Alpha       4 (A)      0.4080
               2       Vir  Beta        2 (A)     -0.0928
               4       Vir  Beta        4 (A)      0.4080


 EOMEE-CCSD transition 4/A
 Total energy = -0.32152162 a.u.  Excitation energy = 18.5721 eV.
 R1^2 = 0.4499  R2^2 = 0.5501  Res^2 = 4.80e-30

 Amplitude    Transitions between orbitals
 -0.5128       1 (A) A       1 (A) B     ->    2 (A) A       3 (A) B      
  0.5128       1 (A) A       1 (A) B     ->    3 (A) A       2 (A) B      
  0.5128       1 (A) A       1 (A) B     ->    3 (A) B       2 (A) A      
 -0.5128       1 (A) A       1 (A) B     ->    2 (A) B       3 (A) A      
  0.5128       1 (A) B       1 (A) A     ->    2 (A) A       3 (A) B      
 -0.5128       1 (A) B       1 (A) A     ->    3 (A) A       2 (A) B      
  0.5128       1 (A) B       1 (A) A     ->    2 (A) B       3 (A) A      
 -0.5128       1 (A) B       1 (A) A     ->    3 (A) B       2 (A) A      
  0.1083       1 (A) A       1 (A) B     ->    4 (A) A       3 (A) B      
 -0.1083       1 (A) A       1 (A) B     ->    3 (A) B       4 (A) A      
 -0.1083       1 (A) B       1 (A) A     ->    4 (A) A       3 (A) B      
 -0.1083       1 (A) B       1 (A) A     ->    4 (A) B       3 (A) A      
 -0.1083       1 (A) A       1 (A) B     ->    3 (A) A       4 (A) B      
  0.1083       1 (A) A       1 (A) B     ->    4 (A) B       3 (A) A      
  0.1083       1 (A) B       1 (A) A     ->    3 (A) A       4 (A) B      
  0.1083       1 (A) B       1 (A) A     ->    3 (A) B       4 (A) A      

              Summary of significant orbitals:

               Number  Type             Irrep      Energy
               1       Occ  Alpha       1 (A)     -0.3548
               1       Occ  Beta        1 (A)     -0.3548
               2       Vir  Alpha       2 (A)     -0.0928
               3       Vir  Alpha       3 (A)      0.4069
               4       Vir  Alpha       4 (A)      0.4080
               2       Vir  Beta        2 (A)     -0.0928
               3       Vir  Beta        3 (A)      0.4069
               4       Vir  Beta        4 (A)      0.4080


 EOMEE-CCSD transition 5/A
 Total energy = -0.30848613 a.u.  Excitation energy = 18.9268 eV.
 R1^2 = 0.2371  R2^2 = 0.7629  Res^2 = 5.98e-30

 Amplitude    Transitions between orbitals
  0.6173       1 (A) A       1 (A) B     ->    2 (A) A       4 (A) B      
 -0.6173       1 (A) A       1 (A) B     ->    4 (A) A       2 (A) B      
 -0.6173       1 (A) A       1 (A) B     ->    4 (A) B       2 (A) A      
  0.6173       1 (A) A       1 (A) B     ->    2 (A) B       4 (A) A      
 -0.6173       1 (A) B       1 (A) A     ->    2 (A) A       4 (A) B      
  0.6173       1 (A) B       1 (A) A     ->    4 (A) A       2 (A) B      
 -0.6173       1 (A) B       1 (A) A     ->    2 (A) B       4 (A) A      
  0.6173       1 (A) B       1 (A) A     ->    4 (A) B       2 (A) A      

              Summary of significant orbitals:

               Number  Type             Irrep      Energy
               1       Occ  Alpha       1 (A)     -0.3548
               1       Occ  Beta        1 (A)     -0.3548
               2       Vir  Alpha       2 (A)     -0.0928
               4       Vir  Alpha       4 (A)      0.4080
               2       Vir  Beta        2 (A)     -0.0928
               4       Vir  Beta        4 (A)      0.4080


 EOMEE-CCSD transition 6/A
 Total energy = 0.09047348 a.u.  Excitation energy = 29.7830 eV.
 R1^2 = 0.0107  R2^2 = 0.9893  Res^2 = 4.36e-30

 Amplitude    Transitions between orbitals
 -0.6885       1 (A) A       1 (A) B     ->    4 (A) A       3 (A) B      
  0.6885       1 (A) A       1 (A) B     ->    3 (A) B       4 (A) A      
  0.6885       1 (A) B       1 (A) A     ->    4 (A) A       3 (A) B      
  0.6885       1 (A) B       1 (A) A     ->    4 (A) B       3 (A) A      
  0.6885       1 (A) A       1 (A) B     ->    3 (A) A       4 (A) B      
 -0.6885       1 (A) A       1 (A) B     ->    4 (A) B       3 (A) A      
 -0.6885       1 (A) B       1 (A) A     ->    3 (A) A       4 (A) B      
 -0.6885       1 (A) B       1 (A) A     ->    3 (A) B       4 (A) A      
 -0.1362       1 (A) A       1 (A) B     ->    2 (A) A       3 (A) B      
  0.1362       1 (A) A       1 (A) B     ->    3 (A) A       2 (A) B      
  0.1362       1 (A) A       1 (A) B     ->    3 (A) B       2 (A) A      
 -0.1362       1 (A) A       1 (A) B     ->    2 (A) B       3 (A) A      
  0.1362       1 (A) B       1 (A) A     ->    2 (A) A       3 (A) B      
 -0.1362       1 (A) B       1 (A) A     ->    3 (A) A       2 (A) B      
  0.1362       1 (A) B       1 (A) A     ->    2 (A) B       3 (A) A      
 -0.1362       1 (A) B       1 (A) A     ->    3 (A) B       2 (A) A      

              Summary of significant orbitals:

               Number  Type             Irrep      Energy
               1       Occ  Alpha       1 (A)     -0.3548
               1       Occ  Beta        1 (A)     -0.3548
               2       Vir  Alpha       2 (A)     -0.0928
               3       Vir  Alpha       3 (A)      0.4069
               4       Vir  Alpha       4 (A)      0.4080
               2       Vir  Beta        2 (A)     -0.0928
               3       Vir  Beta        3 (A)      0.4069
               4       Vir  Beta        4 (A)      0.4080


 EOMEE-CCSD transition 7/A
 Total energy = 1.39849647 a.u.  Excitation energy = 65.3761 eV.
 R1^2 = 0.5999  R2^2 = 0.4001  Res^2 = 1.48e-28

 Amplitude    Transitions between orbitals
 -0.5472       1 (A) A                   ->    5 (A) A                    
  0.5472       1 (A) B                   ->    5 (A) B                    
 -0.0243       1 (A) A                   ->    3 (A) A                    
  0.0243       1 (A) B                   ->    3 (A) B                    

              Summary of significant orbitals:

               Number  Type             Irrep      Energy
               1       Occ  Alpha       1 (A)     -0.3548
               1       Occ  Beta        1 (A)     -0.3548
               3       Vir  Alpha       3 (A)      0.4069
               5       Vir  Alpha       5 (A)      2.4738
               3       Vir  Beta        3 (A)      0.4069
               5       Vir  Beta        5 (A)      2.4738


 EOMEE-CCSD transition 8/A
 Total energy = 1.40214364 a.u.  Excitation energy = 65.4754 eV.
 R1^2 = 0.5482  R2^2 = 0.4518  Res^2 = 1.65e-29

 Amplitude    Transitions between orbitals
 -0.5229       1 (A) A                   ->    6 (A) A                    
  0.5229       1 (A) B                   ->    6 (A) B                    
  0.0237       1 (A) A                   ->    4 (A) A                    
 -0.0237       1 (A) B                   ->    4 (A) B                    

              Summary of significant orbitals:

               Number  Type             Irrep      Energy
               1       Occ  Alpha       1 (A)     -0.3548
               1       Occ  Beta        1 (A)     -0.3548
               4       Vir  Alpha       4 (A)      0.4080
               6       Vir  Alpha       6 (A)      2.4970
               4       Vir  Beta        4 (A)      0.4080
               6       Vir  Beta        6 (A)      2.4970


 EOMEE-CCSD transition 9/A
 Total energy = 1.73934636 a.u.  Excitation energy = 74.6511 eV.
 R1^2 = 0.4257  R2^2 = 0.5743  Res^2 = 6.10e-29

 Amplitude    Transitions between orbitals
 -0.4973       1 (A) A       1 (A) B     ->    5 (A) A       2 (A) B      
  0.4973       1 (A) A       1 (A) B     ->    2 (A) B       5 (A) A      
  0.4973       1 (A) B       1 (A) A     ->    5 (A) A       2 (A) B      
  0.4973       1 (A) B       1 (A) A     ->    5 (A) B       2 (A) A      
  0.4973       1 (A) A       1 (A) B     ->    2 (A) A       5 (A) B      
 -0.4973       1 (A) A       1 (A) B     ->    5 (A) B       2 (A) A      
 -0.4973       1 (A) B       1 (A) A     ->    2 (A) A       5 (A) B      
 -0.4973       1 (A) B       1 (A) A     ->    2 (A) B       5 (A) A      
 -0.1980       1 (A) A       1 (A) B     ->    3 (A) A       6 (A) B      
  0.1980       1 (A) A       1 (A) B     ->    6 (A) B       3 (A) A      
  0.1980       1 (A) B       1 (A) A     ->    3 (A) A       6 (A) B      
  0.1980       1 (A) B       1 (A) A     ->    3 (A) B       6 (A) A      
  0.1980       1 (A) A       1 (A) B     ->    6 (A) A       3 (A) B      
 -0.1980       1 (A) A       1 (A) B     ->    3 (A) B       6 (A) A      
 -0.1980       1 (A) B       1 (A) A     ->    6 (A) A       3 (A) B      
 -0.1980       1 (A) B       1 (A) A     ->    6 (A) B       3 (A) A      

              Summary of significant orbitals:

               Number  Type             Irrep      Energy
               1       Occ  Alpha       1 (A)     -0.3548
               1       Occ  Beta        1 (A)     -0.3548
               2       Vir  Alpha       2 (A)     -0.0928
               3       Vir  Alpha       3 (A)      0.4069
               5       Vir  Alpha       5 (A)      2.4738
               6       Vir  Alpha       6 (A)      2.4970
               2       Vir  Beta        2 (A)     -0.0928
               3       Vir  Beta        3 (A)      0.4069
               5       Vir  Beta        5 (A)      2.4738
               6       Vir  Beta        6 (A)      2.4970


 EOMEE-CCSD transition 10/A
 Total energy = 1.74077959 a.u.  Excitation energy = 74.6901 eV.
 R1^2 = 0.3766  R2^2 = 0.6234  Res^2 = 9.26e-30

 Amplitude    Transitions between orbitals
 -0.5165       1 (A) A       1 (A) B     ->    2 (A) A       6 (A) B      
  0.5165       1 (A) A       1 (A) B     ->    6 (A) A       2 (A) B      
  0.5165       1 (A) A       1 (A) B     ->    6 (A) B       2 (A) A      
 -0.5165       1 (A) A       1 (A) B     ->    2 (A) B       6 (A) A      
  0.5165       1 (A) B       1 (A) A     ->    2 (A) A       6 (A) B      
 -0.5165       1 (A) B       1 (A) A     ->    6 (A) A       2 (A) B      
  0.5165       1 (A) B       1 (A) A     ->    2 (A) B       6 (A) A      
 -0.5165       1 (A) B       1 (A) A     ->    6 (A) B       2 (A) A      
  0.2116       1 (A) A       1 (A) B     ->    3 (A) A       5 (A) B      
 -0.2116       1 (A) A       1 (A) B     ->    5 (A) A       3 (A) B      
 -0.2116       1 (A) A       1 (A) B     ->    5 (A) B       3 (A) A      
  0.2116       1 (A) A       1 (A) B     ->    3 (A) B       5 (A) A      
 -0.2116       1 (A) B       1 (A) A     ->    3 (A) A       5 (A) B      
  0.2116       1 (A) B       1 (A) A     ->    5 (A) A       3 (A) B      
 -0.2116       1 (A) B       1 (A) A     ->    3 (A) B       5 (A) A      
  0.2116       1 (A) B       1 (A) A     ->    5 (A) B       3 (A) A      

              Summary of significant orbitals:

               Number  Type             Irrep      Energy
               1       Occ  Alpha       1 (A)     -0.3548
               1       Occ  Beta        1 (A)     -0.3548
               2       Vir  Alpha       2 (A)     -0.0928
               3       Vir  Alpha       3 (A)      0.4069
               5       Vir  Alpha       5 (A)      2.4738
               6       Vir  Alpha       6 (A)      2.4970
               2       Vir  Beta        2 (A)     -0.0928
               3       Vir  Beta        3 (A)      0.4069
               5       Vir  Beta        5 (A)      2.4738
               6       Vir  Beta        6 (A)      2.4970


 EOMEE-CCSD transition 11/A
 Total energy = 1.94856894 a.u.  Excitation energy = 80.3444 eV.
 R1^2 = 0.0001  R2^2 = 0.9999  Res^2 = 7.59e-27

 Amplitude    Transitions between orbitals
 -0.5121       1 (A) A       1 (A) B     ->    5 (A) A       3 (A) B      
  0.5121       1 (A) A       1 (A) B     ->    3 (A) B       5 (A) A      
  0.5121       1 (A) B       1 (A) A     ->    5 (A) A       3 (A) B      
  0.5121       1 (A) B       1 (A) A     ->    5 (A) B       3 (A) A      
  0.5121       1 (A) A       1 (A) B     ->    3 (A) A       5 (A) B      
 -0.5121       1 (A) A       1 (A) B     ->    5 (A) B       3 (A) A      
 -0.5121       1 (A) B       1 (A) A     ->    3 (A) A       5 (A) B      
 -0.5121       1 (A) B       1 (A) A     ->    3 (A) B       5 (A) A      
  0.4621       1 (A) A       1 (A) B     ->    4 (A) A       6 (A) B      
 -0.4621       1 (A) A       1 (A) B     ->    6 (A) B       4 (A) A      
 -0.4621       1 (A) B       1 (A) A     ->    4 (A) A       6 (A) B      
 -0.4621       1 (A) B       1 (A) A     ->    4 (A) B       6 (A) A      
 -0.4621       1 (A) A       1 (A) B     ->    6 (A) A       4 (A) B      
  0.4621       1 (A) A       1 (A) B     ->    4 (A) B       6 (A) A      
  0.4621       1 (A) B       1 (A) A     ->    6 (A) A       4 (A) B      
  0.4621       1 (A) B       1 (A) A     ->    6 (A) B       4 (A) A      
 -0.1550       1 (A) A       1 (A) B     ->    6 (A) A       2 (A) B      
  0.1550       1 (A) A       1 (A) B     ->    2 (A) B       6 (A) A      
  0.1550       1 (A) B       1 (A) A     ->    6 (A) A       2 (A) B      
  0.1550       1 (A) B       1 (A) A     ->    6 (A) B       2 (A) A      
  0.1550       1 (A) A       1 (A) B     ->    2 (A) A       6 (A) B      
 -0.1550       1 (A) A       1 (A) B     ->    6 (A) B       2 (A) A      
 -0.1550       1 (A) B       1 (A) A     ->    2 (A) A       6 (A) B      
 -0.1550       1 (A) B       1 (A) A     ->    2 (A) B       6 (A) A      

              Summary of significant orbitals:

               Number  Type             Irrep      Energy
               1       Occ  Alpha       1 (A)     -0.3548
               1       Occ  Beta        1 (A)     -0.3548
               2       Vir  Alpha       2 (A)     -0.0928
               3       Vir  Alpha       3 (A)      0.4069
               4       Vir  Alpha       4 (A)      0.4080
               5       Vir  Alpha       5 (A)      2.4738
               6       Vir  Alpha       6 (A)      2.4970
               2       Vir  Beta        2 (A)     -0.0928
               3       Vir  Beta        3 (A)      0.4069
               4       Vir  Beta        4 (A)      0.4080
               5       Vir  Beta        5 (A)      2.4738
               6       Vir  Beta        6 (A)      2.4970


 EOMEE-CCSD transition 12/A
 Total energy = 1.94999537 a.u.  Excitation energy = 80.3832 eV.
 R1^2 = 0.0007  R2^2 = 0.9993  Res^2 = 6.28e-28

 Amplitude    Transitions between orbitals
  0.4982       1 (A) A       1 (A) B     ->    4 (A) A       5 (A) B      
 -0.4982       1 (A) A       1 (A) B     ->    5 (A) B       4 (A) A      
 -0.4982       1 (A) B       1 (A) A     ->    4 (A) A       5 (A) B      
 -0.4982       1 (A) B       1 (A) A     ->    4 (A) B       5 (A) A      
 -0.4982       1 (A) A       1 (A) B     ->    5 (A) A       4 (A) B      
  0.4982       1 (A) A       1 (A) B     ->    4 (A) B       5 (A) A      
  0.4982       1 (A) B       1 (A) A     ->    5 (A) A       4 (A) B      
  0.4982       1 (A) B       1 (A) A     ->    5 (A) B       4 (A) A      
  0.4778       1 (A) A       1 (A) B     ->    3 (A) A       6 (A) B      
 -0.4778       1 (A) A       1 (A) B     ->    6 (A) B       3 (A) A      
 -0.4778       1 (A) B       1 (A) A     ->    3 (A) A       6 (A) B      
 -0.4778       1 (A) B       1 (A) A     ->    3 (A) B       6 (A) A      
 -0.4778       1 (A) A       1 (A) B     ->    6 (A) A       3 (A) B      
  0.4778       1 (A) A       1 (A) B     ->    3 (A) B       6 (A) A      
  0.4778       1 (A) B       1 (A) A     ->    6 (A) A       3 (A) B      
  0.4778       1 (A) B       1 (A) A     ->    6 (A) B       3 (A) A      
  0.1382       1 (A) A       1 (A) B     ->    2 (A) A       5 (A) B      
 -0.1382       1 (A) A       1 (A) B     ->    5 (A) B       2 (A) A      
 -0.1382       1 (A) B       1 (A) A     ->    2 (A) A       5 (A) B      
 -0.1382       1 (A) B       1 (A) A     ->    2 (A) B       5 (A) A      
 -0.1382       1 (A) A       1 (A) B     ->    5 (A) A       2 (A) B      
  0.1382       1 (A) A       1 (A) B     ->    2 (A) B       5 (A) A      
  0.1382       1 (A) B       1 (A) A     ->    5 (A) A       2 (A) B      
  0.1382       1 (A) B       1 (A) A     ->    5 (A) B       2 (A) A      

              Summary of significant orbitals:

               Number  Type             Irrep      Energy
               1       Occ  Alpha       1 (A)     -0.3548
               1       Occ  Beta        1 (A)     -0.3548
               2       Vir  Alpha       2 (A)     -0.0928
               3       Vir  Alpha       3 (A)      0.4069
               4       Vir  Alpha       4 (A)      0.4080
               5       Vir  Alpha       5 (A)      2.4738
               6       Vir  Alpha       6 (A)      2.4970
               2       Vir  Beta        2 (A)     -0.0928
               3       Vir  Beta        3 (A)      0.4069
               4       Vir  Beta        4 (A)      0.4080
               5       Vir  Beta        5 (A)      2.4738
               6       Vir  Beta        6 (A)      2.4970


 EOMEE-CCSD calculation:   CPU 2.88 s  wall 2.89 s

 Total ccman2 time:   CPU 4.22 s  wall 4.26 s

 Analysis of SCF Wavefunction
 
 --------------------------------------------------------------
                    Orbital Energies (a.u.)
 --------------------------------------------------------------
 
 Alpha MOs
 -- Occupied --
 -0.355
 -- Virtual --
 -0.093   0.407   0.408   2.474   2.497
 --------------------------------------------------------------
 
          Ground-State Mulliken Net Atomic Charges

     Atom                 Charge (a.u.)
  ----------------------------------------
      1 H                    -0.000000
      2 H                     0.000000
  ----------------------------------------
  Sum of atomic charges =    -0.000000

 -----------------------------------------------------------------
                    Cartesian Multipole Moments
 -----------------------------------------------------------------
    Charge (ESU x 10^10)
                -0.0000
    Dipole Moment (Debye)
         X       0.0000      Y       0.0000      Z       0.0000
       Tot       0.0000
    Quadrupole Moments (Debye-Ang)
        XX      -3.7768     XY       0.0000     YY      -3.7768
        XZ       0.0000     YZ       0.0000     ZZ      -1.8624
    Octopole Moments (Debye-Ang^2)
       XXX       0.0000    XXY       0.0000    XYY       0.0000
       YYY       0.0000    XXZ       0.0000    XYZ       0.0000
       YYZ       0.0000    XZZ       0.0000    YZZ       0.0000
       ZZZ       0.0000
    Hexadecapole Moments (Debye-Ang^3)
      XXXX      -6.0240   XXXY       0.0000   XXYY      -2.0080
      XYYY       0.0000   YYYY      -6.0240   XXXZ       0.0000
      XXYZ       0.0000   XYYZ       0.0000   YYYZ       0.0000
      XXZZ      -6.8331   XYZZ       0.0000   YYZZ      -6.8331
      XZZZ       0.0000   YZZZ       0.0000   ZZZZ     -31.7192
 -----------------------------------------------------------------
Archival summary:
1\1\v7\SP\ProcedureUnspecified\BasisUnspecified\2\alex\WedJul2915:13:562015WedJul2915:13:562015\0\\#,ProcedureUnspecified,BasisUnspecified,\\0,1\H\H,1,2.5\\HF=-0.868409571\\@

 Total job time:  4.43s(wall), 4.38s(cpu) 
 Wed Jul 29 15:13:56 2015

        *************************************************************
        *                                                           *
        *  Thank you very much for using Q-Chem.  Have a nice day.  *
        *                                                           *
        *************************************************************


0 sent ACK to 0 
now end server 0 ... 
