Process 0 of 1 is on v61 - thread support 0
initial socket setup ...start
initial socket setup ...done 
now start server 0 ... 
                  Welcome to Q-Chem
     A Quantum Leap Into The Future Of Chemistry


 Q-Chem 4.2, Q-Chem, Inc., Pleasanton, CA (2014).

 Y. Shao,  Z. Gan,  E. Epifanovsky,  A. T. B. Gilbert,  M. Wormit,  
 J. Kussmann,  A. W. Lange,  A. Behn,  J. Deng,  X. Feng,  D. Ghosh,  
 M. Goldey,  P. R. Horn,  L. D. Jacobson,  I. Kaliman,  R. Z. Khaliullin,  
 T. Kus,  A. Landau,  J. Liu,  E. I. Proynov,  Y. M. Rhee,  R. M. Richard,  
 M. A. Rohrdanz,  R. P. Steele,  E. J. Sundstrom,  H. L. Woodcock III,  
 P. M. Zimmerman,  D. Zuev,  B. Albrecht,  E. Alguire,  B. Austin,  
 G. J. O. Beran,  Y. A. Bernard,  E. Berquist,  K. Brandhorst,  
 K. B. Bravaya,  S. T. Brown,  D. Casanova,  C.-M. Chang,  Y. Chen,  
 S. H. Chien,  K. D. Closser,  D. L. Crittenden,  M. Diedenhofen,  
 R. A. DiStasio Jr.,  H. Do,  A. D. Dutoi,  R. G. Edgar,  S. Fatehi,  
 L. Fusti-Molnar,  A. Ghysels,  A. Golubeva-Zadorozhnaya,  J. Gomes,  
 M. W. D. Hanson-Heine,  P. H. P. Harbach,  A. W. Hauser,  E. G. Hohenstein,  
 Z. C. Holden,  T.-C. Jagau,  H. Ji,  B. Kaduk,  K. Khistyaev,  Jaehoon Kim,  
 Jihan Kim,  R. A. King,  P. Klunzinger,  D. Kosenkov,  T. Kowalczyk,  
 C. M. Krauter,  K. U. Lao,  A. Laurent,  K. V. Lawler,  S. V. Levchenko,  
 C. Y. Lin,  F. Liu,  E. Livshits,  R. C. Lochan,  A. Luenser,  P. Manohar,  
 S. F. Manzer,  S.-P. Mao,  N. Mardirossian,  A. V. Marenich,  S. A. Maurer,  
 N. J. Mayhall,  C. M. Oana,  R. Olivares-Amaya,  D. P. O'Neill,  
 J. A. Parkhill,  T. M. Perrine,  R. Peverati,  P. A. Pieniazek,  A. Prociuk,  
 D. R. Rehn,  E. Rosta,  N. J. Russ,  N. Sergueev,  S. M. Sharada,  
 S. Sharma,  D. W. Small,  A. Sodt,  T. Stein,  D. Stuck,  Y.-C. Su,  
 A. J. W. Thom,  T. Tsuchimochi,  L. Vogt,  O. Vydrov,  T. Wang,  
 M. A. Watson,  J. Wenzel,  A. White,  C. F. Williams,  V. Vanovschi,  
 S. Yeganeh,  S. R. Yost,  Z.-Q. You,  I. Y. Zhang,  X. Zhang,  Y. Zhao,  
 B. R. Brooks,  G. K. L. Chan,  D. M. Chipman,  C. J. Cramer,  
 W. A. Goddard III,  M. S. Gordon,  W. J. Hehre,  A. Klamt,  
 H. F. Schaefer III,  M. W. Schmidt,  C. D. Sherrill,  D. G. Truhlar,  
 A. Warshel,  X. Xu,  A. Aspuru-Guzik,  R. Baer,  A. T. Bell,  N. A. Besley,  
 J.-D. Chai,  A. Dreuw,  B. D. Dunietz,  T. R. Furlani,  S. R. Gwaltney,  
 C.-P. Hsu,  Y. Jung,  J. Kong,  D. S. Lambrecht,  W. Liang,  C. Ochsenfeld,  
 V. A. Rassolov,  L. V. Slipchenko,  J. E. Subotnik,  T. Van Voorhis,  
 J. M. Herbert,  A. I. Krylov,  P. M. W. Gill,  M. Head-Gordon

 Contributors to earlier versions of Q-Chem not listed above: 
 R. D. Adamson,  J. Baker,  E. F. C. Byrd,  A. K. Chakraborty,  C.-L. Cheng,  
 H. Dachsel,  R. J. Doerksen,  G. Hawkins,  A. Heyden,  S. Hirata,  
 G. Kedziora,  F. J. Keil,  C. Kelley,  P. P. Korambath,  W. Kurlancheek,  
 A. M. Lee,  M. S. Lee,  D. Liotard,  I. Lotan,  P. E. Maslen,  N. Nair,  
 D. Neuhauser,  R. Olson,  B. Peters,  J. Ritchie,  N. E. Schultz,  
 N. Shenvi,  A. C. Simmonett,  K. S. Thanthiriwatte,  Q. Wu,  W. Zhang

 Q-Chem 4.2.0 for Intel X86 EM64T Linux

 Parts of Q-Chem use Armadillo 4.100.2 (Dirt Cruiser).
 http://arma.sourceforge.net/

 Q-Chem begins on Wed Aug  5 04:46:26 2015  

Host: v61
0

     Scratch files written to /tmp1/avcopan/133911/qchem24091//
 Jun2414 |opt|qchem|4.2|qc42|libmdc|qstr_info.C -1
 Parallel job on  1  processors
Finally everything over in PARseQInput

--------------------------------------------------------------
User input:
--------------------------------------------------------------
$molecule
0 1
N
N,1,R1

R1=0.9
$end

$rem
method      eom-ccsd
basis       6-311G
cc_symmetry false
ee_singlets [12]
ee_triplets [12]
$end

--------------------------------------------------------------
 ----------------------------------------------------------------
             Standard Nuclear Orientation (Angstroms)
    I     Atom           X                Y                Z
 ----------------------------------------------------------------
    1      N       0.0000000000     0.0000000000    -0.4500000000
    2      N       0.0000000000     0.0000000000     0.4500000000
 ----------------------------------------------------------------
 Molecular Point Group                 D*h   NOp =***
 Largest Abelian Subgroup              D2h   NOp =  1
 Nuclear Repulsion Energy =    28.8107592547 hartrees
 There are        7 alpha and        7 beta electrons
 Requested basis set is 6-311G
 There are 8 shells and 26 basis functions
Total memory of 1801MB is distributed as follows: 
   QALLOC including MEM_STATIC uses 1301MB
   MEM_STATIC is set to 301MB
   CCMAN JOB total memory use is  1500MB
Warning: actual memory use might exceed 1801MB

Total QAlloc Memory Limit   1301 MB
Mega-Array Size       295 MB
MEM_STATIC part       301 MB

                       Distance Matrix (Angstroms)
             N (  1)
   N (  2)  0.900000
 
 A cutoff of  1.0D-14 yielded     36 shell pairs
 There are       387 function pairs
 Smallest overlap matrix eigenvalue = 2.22E-03

  Scale SEOQF with 1.000000e+00/1.000000e+00/1.000000e+00

 Standard Electronic Orientation quadrupole field applied
 Nucleus-field energy     =    -0.0000000030 hartrees
 Guess from superposition of atomic densities
 Warning:  Energy on first SCF cycle will be non-variational
 A restricted Hartree-Fock SCF calculation will be
 performed using Pulay DIIS extrapolation
 SCF converges when DIIS error is below 1.0E-08
 ---------------------------------------
  Cycle       Energy         DIIS Error
 ---------------------------------------
    1    -109.8007370068      2.79E-01
    2    -108.7170537826      9.60E-03
    3    -108.7246249320      1.98E-03
    4    -108.7249808428      3.54E-04
    5    -108.7249894798      4.82E-05
    6    -108.7249897014      4.09E-06
    7    -108.7249897039      4.55E-07
    8    -108.7249897039      6.91E-08
    9    -108.7249897039      2.18E-08
   10    -108.7249897039      8.98E-10 Convergence criterion met
 ---------------------------------------
 SCF time:  CPU 0.04 s  wall 0.09 s
 SCF   energy in the final basis set = -108.7249897039
 Total energy in the final basis set = -108.7249897039


 ------------------------------------------------------------------------------

   CCMAN2: suite of methods based on coupled cluster
           and equation of motion theories.

   Components:
   * libvmm-1.2-release
     by Evgeny Epifanovsky, Ilya Kaliman.
   * libtensor-2.3-release
     by Evgeny Epifanovsky, Michael Wormit, Dmitry Zuev, Sam Manzer.
   * libcc-2.3-release
     by Evgeny Epifanovsky, Arik Landau, Tomasz Kus, Kirill Khistyaev, 
        Dmitry Zuev, Prashant Manohar, Xintian Feng, Anna Krylov, 
        Matthew Goldey, Alec White, Thomas Jagau.

   CCMAN original authors:
   Anna I. Krylov, C. David Sherrill, Steven R. Gwaltney,
   Edward F. C. Byrd (2000)
   Sergey V. Levchenko, Lyudmila V. Slipchenko, Tao Wang,
   Ana-Maria C. Cristian (2003)
   Piotr A. Pieniazek, C. Melania Oana, Evgeny Epifanovsky (2007)
   Prashant Manohar (2009)

 ------------------------------------------------------------------------------


 Calculation will run on 1 core with 1500MB of RAM.


 Occupation and symmetry of molecular orbitals

 Point group: C1 (1 irreducible representation).

                           A     All 
 -------------------------------------
 All molecular orbitals:
  - Alpha                  26    26  
  - Beta                   26    26  
 -------------------------------------
 Alpha orbitals:
  - Frozen occupied        0     0   
  - Active occupied        7     7   
  - Active virtual         19    19  
  - Frozen virtual         0     0   
 -------------------------------------
 Beta orbitals:
  - Frozen occupied        0     0   
  - Active occupied        7     7   
  - Active virtual         19    19  
  - Frozen virtual         0     0   
 -------------------------------------

 Import integrals:   CPU 0.00 s  wall 0.00 s

 
 Import integrals:   CPU 0.03 s  wall 0.06 s

 MP2 amplitudes:   CPU 0.00 s  wall 0.00 s

           CCSD T amplitudes will be solved using DIIS.
           Estimated memory + disk requirements 14 MB +/-

           Start     Size      MaxIter   EConv     TConv     
           3         7         100       1.0e-06   0.00010   
 ------------------------------------------------------------------------------
           Energy (a.u.)   Ediff      Tdiff       Comment
 ------------------------------------------------------------------------------
          -108.96227224                           
     1    -108.95710177   5.17e-03   4.30e-01     
     2    -108.96320440   6.10e-03   5.24e-02     
     3    -108.96369981   4.95e-04   1.57e-02     
     4    -108.96438936   6.90e-04   7.64e-03     Switched to DIIS steps.
     5    -108.96450726   1.18e-04   2.89e-03     
     6    -108.96450903   1.77e-06   4.93e-04     
     7    -108.96450889   1.37e-07   5.90e-05     
 ------------------------------------------------------------------------------
          -108.96450889                           CCSD T converged.

 SCF energy                 = -108.72498970
 MP2 energy                 = -108.96227224
 CCSD correlation energy    =   -0.23951919
 CCSD total energy          = -108.96450889

 CCSD  T1^2 = 0.0012  T2^2 = 0.0693.  Leading amplitudes:

 Amplitude    Orbitals with energies
  0.0115       4 (A) A                   ->    12 (A) A                   
              -0.7255                          0.6533                     
  0.0115       4 (A) B                   ->    12 (A) B                   
              -0.7255                          0.6533                     
  0.0115       5 (A) A                   ->    13 (A) A                   
              -0.7255                          0.6533                     
  0.0115       5 (A) B                   ->    13 (A) B                   
              -0.7255                          0.6533                     

 Amplitude    Orbitals with energies
 -0.0700       5 (A) A       5 (A) B     ->    9 (A) A       9 (A) B      
              -0.7255       -0.7255            0.2651        0.2651       
  0.0700       5 (A) A       5 (A) B     ->    9 (A) B       9 (A) A      
              -0.7255       -0.7255            0.2651        0.2651       
  0.0700       5 (A) B       5 (A) A     ->    9 (A) A       9 (A) B      
              -0.7255       -0.7255            0.2651        0.2651       
 -0.0700       5 (A) B       5 (A) A     ->    9 (A) B       9 (A) A      
              -0.7255       -0.7255            0.2651        0.2651       
 -0.0700       4 (A) A       4 (A) B     ->    8 (A) A       8 (A) B      
              -0.7255       -0.7255            0.2651        0.2651       
  0.0700       4 (A) A       4 (A) B     ->    8 (A) B       8 (A) A      
              -0.7255       -0.7255            0.2651        0.2651       
  0.0700       4 (A) B       4 (A) A     ->    8 (A) A       8 (A) B      
              -0.7255       -0.7255            0.2651        0.2651       
 -0.0700       4 (A) B       4 (A) A     ->    8 (A) B       8 (A) A      
              -0.7255       -0.7255            0.2651        0.2651       

 CCSD calculation:   CPU 0.32 s  wall 0.32 s

           Solving for EOMEE-CCSD A singlet states.

      EOMEE-CCSD right amplitudes will be solved using Davidson.
      Roots     MaxVec    MaxIter   Precond   Conv      Thresh    Shift    
      12        60        60        0         1.00e-05  1.00e-05  0.00e+00  
 ------------------------------------------------------------------------------
         Vec  Conv   RNorm       Current eigenvalues (eV)
 ------------------------------------------------------------------------------
          13     0  2.09e-01    15.8795    15.8795    17.1146    17.5930 
                                17.5930    19.0298    19.0298    24.5344 
                                26.4726    26.6812    26.6812    27.0256 
     1    25     0  2.06e-02    12.8641    12.8641    15.8308    15.9168 
                                15.9168    16.0741    16.0746    21.7201 
                                23.1178    23.6277    23.6277    24.1900 
     2    37     0  3.95e-03    12.6880    12.6880    15.6462    15.6462 
                                15.7911    16.0113    16.0113    21.3965 
                                22.8473    23.4120    23.4120    23.8565 
     3    49     0  6.71e-04    12.6589    12.6589    15.6046    15.6046 
                                15.7897    16.0095    16.0095    21.3493 
                                22.7916    23.3735    23.3735    23.7960 
     4    60     3  2.26e-04    12.6569    12.6569    15.5985    15.5985 
                                15.7899*   16.0099*   16.0099*   21.3467 
                                22.7801    23.3662    23.3662    23.7960 
     5    23     5  7.12e-05    12.6558*   12.6558*   15.5978    15.5978 
                                15.7899*   16.0097*   16.0097*   21.3439 
                                22.7755    23.3647    23.3647    23.7798 
     6    30    10  4.26e-05    12.6558*   12.6558*   15.5983*   15.5983*
                                15.7899*   16.0097*   16.0097*   21.3441*
                                22.7739    23.3648*   23.3648*   23.7707 
     7    34    10  1.84e-05    12.6558*   12.6558*   15.5986*   15.5986*
                                15.7899*   16.0097*   16.0097*   21.3441*
                                22.7748    23.3649*   23.3649*   23.7630 
     8    36    11  8.06e-06    12.6558*   12.6558*   15.5986*   15.5986*
                                15.7899*   16.0097*   16.0097*   21.3441*
                                22.7752*   23.3649*   23.3649*   23.7573 
     9    37    11  6.55e-06    12.6558*   12.6558*   15.5986*   15.5986*
                                15.7899*   16.0097*   16.0097*   21.3441*
                                22.7752*   23.3649*   23.3649*   23.7557 
    10    38    11  5.09e-06    12.6558*   12.6558*   15.5986*   15.5986*
                                15.7899*   16.0097*   16.0097*   21.3441*
                                22.7752*   23.3649*   23.3649*   23.7550 
    11    39    11  4.00e-06    12.6558*   12.6558*   15.5986*   15.5986*
                                15.7899*   16.0097*   16.0097*   21.3441*
                                22.7752*   23.3649*   23.3649*   23.7532 
    12    40    12  2.72e-06    12.6558*   12.6558*   15.5986*   15.5986*
                                15.7899*   16.0097*   16.0097*   21.3441*
                                22.7752*   23.3649*   23.3649*   23.7536*
    13    12     0  0.00e+00 
 ------------------------------------------------------------------------------

 EOMEE-CCSD transition 1/A
 Total energy = -108.49941592 a.u.  Excitation energy = 12.6558 eV.
 R1^2 = 0.9417  R2^2 = 0.0583  Res^2 = 4.88e-06

 Amplitude    Transitions between orbitals
  0.6786       7 (A) A                   ->    8 (A) A                    
  0.6786       7 (A) B                   ->    8 (A) B                    
 -0.0910       7 (A) A                   ->    15 (A) A                   
 -0.0910       7 (A) B                   ->    15 (A) B                   

              Summary of significant orbitals:

               Number  Type             Irrep      Energy
               7       Occ  Alpha       7 (A)     -0.6482
               7       Occ  Beta        7 (A)     -0.6482
               8       Vir  Alpha       8 (A)      0.2651
               15      Vir  Alpha      15 (A)      0.9603
               8       Vir  Beta        8 (A)      0.2651
               15      Vir  Beta       15 (A)      0.9603


 EOMEE-CCSD transition 2/A
 Total energy = -108.49941592 a.u.  Excitation energy = 12.6558 eV.
 R1^2 = 0.9417  R2^2 = 0.0583  Res^2 = 4.88e-06

 Amplitude    Transitions between orbitals
  0.6786       7 (A) A                   ->    9 (A) A                    
  0.6786       7 (A) B                   ->    9 (A) B                    
  0.0910       7 (A) A                   ->    16 (A) A                   
  0.0910       7 (A) B                   ->    16 (A) B                   

              Summary of significant orbitals:

               Number  Type             Irrep      Energy
               7       Occ  Alpha       7 (A)     -0.6482
               7       Occ  Beta        7 (A)     -0.6482
               9       Vir  Alpha       9 (A)      0.2651
               16      Vir  Alpha      16 (A)      0.9603
               9       Vir  Beta        9 (A)      0.2651
               16      Vir  Beta       16 (A)      0.9603


 EOMEE-CCSD transition 3/A
 Total energy = -108.39127202 a.u.  Excitation energy = 15.5986 eV.
 R1^2 = 0.9142  R2^2 = 0.0858  Res^2 = 1.85e-06

 Amplitude    Transitions between orbitals
  0.6716       6 (A) A                   ->    8 (A) A                    
  0.6716       6 (A) B                   ->    8 (A) B                    
 -0.0600       6 (A) A                   ->    15 (A) A                   
 -0.0600       6 (A) B                   ->    15 (A) B                   

              Summary of significant orbitals:

               Number  Type             Irrep      Energy
               6       Occ  Alpha       6 (A)     -0.7038
               6       Occ  Beta        6 (A)     -0.7038
               8       Vir  Alpha       8 (A)      0.2651
               15      Vir  Alpha      15 (A)      0.9603
               8       Vir  Beta        8 (A)      0.2651
               15      Vir  Beta       15 (A)      0.9603


 EOMEE-CCSD transition 4/A
 Total energy = -108.39127202 a.u.  Excitation energy = 15.5986 eV.
 R1^2 = 0.9142  R2^2 = 0.0858  Res^2 = 1.85e-06

 Amplitude    Transitions between orbitals
  0.6716       6 (A) A                   ->    9 (A) A                    
  0.6716       6 (A) B                   ->    9 (A) B                    
  0.0600       6 (A) A                   ->    16 (A) A                   
  0.0600       6 (A) B                   ->    16 (A) B                   

              Summary of significant orbitals:

               Number  Type             Irrep      Energy
               6       Occ  Alpha       6 (A)     -0.7038
               6       Occ  Beta        6 (A)     -0.7038
               9       Vir  Alpha       9 (A)      0.2651
               16      Vir  Alpha      16 (A)      0.9603
               9       Vir  Beta        9 (A)      0.2651
               16      Vir  Beta       16 (A)      0.9603


 EOMEE-CCSD transition 5/A
 Total energy = -108.38423969 a.u.  Excitation energy = 15.7899 eV.
 R1^2 = 0.9883  R2^2 = 0.0117  Res^2 = 2.93e-06

 Amplitude    Transitions between orbitals
 -0.4906       5 (A) A                   ->    8 (A) A                    
 -0.4906       5 (A) B                   ->    8 (A) B                    
 -0.4906       4 (A) A                   ->    9 (A) A                    
 -0.4906       4 (A) B                   ->    9 (A) B                    

              Summary of significant orbitals:

               Number  Type             Irrep      Energy
               4       Occ  Alpha       4 (A)     -0.7255
               5       Occ  Alpha       5 (A)     -0.7255
               4       Occ  Beta        4 (A)     -0.7255
               5       Occ  Beta        5 (A)     -0.7255
               8       Vir  Alpha       8 (A)      0.2651
               9       Vir  Alpha       9 (A)      0.2651
               8       Vir  Beta        8 (A)      0.2651
               9       Vir  Beta        9 (A)      0.2651


 EOMEE-CCSD transition 6/A
 Total energy = -108.37616159 a.u.  Excitation energy = 16.0097 eV.
 R1^2 = 0.9735  R2^2 = 0.0265  Res^2 = 9.27e-07

 Amplitude    Transitions between orbitals
 -0.4882       4 (A) A                   ->    8 (A) A                    
 -0.4882       4 (A) B                   ->    8 (A) B                    
 -0.4882       5 (A) A                   ->    9 (A) A                    
 -0.4882       5 (A) B                   ->    9 (A) B                    

              Summary of significant orbitals:

               Number  Type             Irrep      Energy
               4       Occ  Alpha       4 (A)     -0.7255
               5       Occ  Alpha       5 (A)     -0.7255
               4       Occ  Beta        4 (A)     -0.7255
               5       Occ  Beta        5 (A)     -0.7255
               8       Vir  Alpha       8 (A)      0.2651
               9       Vir  Alpha       9 (A)      0.2651
               8       Vir  Beta        8 (A)      0.2651
               9       Vir  Beta        9 (A)      0.2651


 EOMEE-CCSD transition 7/A
 Total energy = -108.37616152 a.u.  Excitation energy = 16.0097 eV.
 R1^2 = 0.9735  R2^2 = 0.0265  Res^2 = 8.82e-07

 Amplitude    Transitions between orbitals
  0.4882       4 (A) A                   ->    9 (A) A                    
  0.4882       4 (A) B                   ->    9 (A) B                    
 -0.4882       5 (A) A                   ->    8 (A) A                    
 -0.4882       5 (A) B                   ->    8 (A) B                    

              Summary of significant orbitals:

               Number  Type             Irrep      Energy
               4       Occ  Alpha       4 (A)     -0.7255
               5       Occ  Alpha       5 (A)     -0.7255
               4       Occ  Beta        4 (A)     -0.7255
               5       Occ  Beta        5 (A)     -0.7255
               8       Vir  Alpha       8 (A)      0.2651
               9       Vir  Alpha       9 (A)      0.2651
               8       Vir  Beta        8 (A)      0.2651
               9       Vir  Beta        9 (A)      0.2651


 EOMEE-CCSD transition 8/A
 Total energy = -108.18012788 a.u.  Excitation energy = 21.3441 eV.
 R1^2 = 0.9687  R2^2 = 0.0313  Res^2 = 2.68e-06

 Amplitude    Transitions between orbitals
  0.4580       5 (A) A                   ->    9 (A) A                    
  0.4580       5 (A) B                   ->    9 (A) B                    
 -0.4580       4 (A) A                   ->    8 (A) A                    
 -0.4580       4 (A) B                   ->    8 (A) B                    
  0.1861       6 (A) A                   ->    14 (A) A                   
  0.1861       6 (A) B                   ->    14 (A) B                   
 -0.1132       7 (A) A                   ->    10 (A) A                   
 -0.1132       7 (A) B                   ->    10 (A) B                   

              Summary of significant orbitals:

               Number  Type             Irrep      Energy
               4       Occ  Alpha       4 (A)     -0.7255
               5       Occ  Alpha       5 (A)     -0.7255
               6       Occ  Alpha       6 (A)     -0.7038
               7       Occ  Alpha       7 (A)     -0.6482
               4       Occ  Beta        4 (A)     -0.7255
               5       Occ  Beta        5 (A)     -0.7255
               6       Occ  Beta        6 (A)     -0.7038
               7       Occ  Beta        7 (A)     -0.6482
               8       Vir  Alpha       8 (A)      0.2651
               9       Vir  Alpha       9 (A)      0.2651
               10      Vir  Alpha      10 (A)      0.5940
               14      Vir  Alpha      14 (A)      0.8326
               8       Vir  Beta        8 (A)      0.2651
               9       Vir  Beta        9 (A)      0.2651
               10      Vir  Beta       10 (A)      0.5940
               14      Vir  Beta       14 (A)      0.8326


 EOMEE-CCSD transition 9/A
 Total energy = -108.12753593 a.u.  Excitation energy = 22.7752 eV.
 R1^2 = 0.9363  R2^2 = 0.0637  Res^2 = 1.37e-06

 Amplitude    Transitions between orbitals
  0.6446       7 (A) A                   ->    10 (A) A                   
  0.6446       7 (A) B                   ->    10 (A) B                   
  0.1886       6 (A) A                   ->    11 (A) A                   
  0.1886       6 (A) B                   ->    11 (A) B                   

              Summary of significant orbitals:

               Number  Type             Irrep      Energy
               6       Occ  Alpha       6 (A)     -0.7038
               7       Occ  Alpha       7 (A)     -0.6482
               6       Occ  Beta        6 (A)     -0.7038
               7       Occ  Beta        7 (A)     -0.6482
               10      Vir  Alpha      10 (A)      0.5940
               11      Vir  Alpha      11 (A)      0.6527
               10      Vir  Beta       10 (A)      0.5940
               11      Vir  Beta       11 (A)      0.6527


 EOMEE-CCSD transition 10/A
 Total energy = -108.10586380 a.u.  Excitation energy = 23.3649 eV.
 R1^2 = 0.9332  R2^2 = 0.0668  Res^2 = 1.93e-06

 Amplitude    Transitions between orbitals
 -0.6813       7 (A) A                   ->    12 (A) A                   
 -0.6813       7 (A) B                   ->    12 (A) B                   
  0.0432       6 (A) A                   ->    15 (A) A                   
  0.0432       6 (A) B                   ->    15 (A) B                   

              Summary of significant orbitals:

               Number  Type             Irrep      Energy
               6       Occ  Alpha       6 (A)     -0.7038
               7       Occ  Alpha       7 (A)     -0.6482
               6       Occ  Beta        6 (A)     -0.7038
               7       Occ  Beta        7 (A)     -0.6482
               12      Vir  Alpha      12 (A)      0.6533
               15      Vir  Alpha      15 (A)      0.9603
               12      Vir  Beta       12 (A)      0.6533
               15      Vir  Beta       15 (A)      0.9603


 EOMEE-CCSD transition 11/A
 Total energy = -108.10586380 a.u.  Excitation energy = 23.3649 eV.
 R1^2 = 0.9332  R2^2 = 0.0668  Res^2 = 1.93e-06

 Amplitude    Transitions between orbitals
  0.6813       7 (A) A                   ->    13 (A) A                   
  0.6813       7 (A) B                   ->    13 (A) B                   
 -0.0432       6 (A) A                   ->    16 (A) A                   
 -0.0432       6 (A) B                   ->    16 (A) B                   

              Summary of significant orbitals:

               Number  Type             Irrep      Energy
               6       Occ  Alpha       6 (A)     -0.7038
               7       Occ  Alpha       7 (A)     -0.6482
               6       Occ  Beta        6 (A)     -0.7038
               7       Occ  Beta        7 (A)     -0.6482
               13      Vir  Alpha      13 (A)      0.6533
               16      Vir  Alpha      16 (A)      0.9603
               13      Vir  Beta       13 (A)      0.6533
               16      Vir  Beta       16 (A)      0.9603


 EOMEE-CCSD transition 12/A
 Total energy = -108.09157844 a.u.  Excitation energy = 23.7536 eV.
 R1^2 = 0.9272  R2^2 = 0.0728  Res^2 = 6.48e-06

 Amplitude    Transitions between orbitals
 -0.4836       7 (A) A                   ->    11 (A) A                   
 -0.4836       7 (A) B                   ->    11 (A) B                   
 -0.4179       6 (A) A                   ->    10 (A) A                   
 -0.4179       6 (A) B                   ->    10 (A) B                   
 -0.1638       4 (A) A                   ->    12 (A) A                   
 -0.1638       4 (A) B                   ->    12 (A) B                   
 -0.1638       5 (A) A                   ->    13 (A) A                   
 -0.1638       5 (A) B                   ->    13 (A) B                   

              Summary of significant orbitals:

               Number  Type             Irrep      Energy
               4       Occ  Alpha       4 (A)     -0.7255
               5       Occ  Alpha       5 (A)     -0.7255
               6       Occ  Alpha       6 (A)     -0.7038
               7       Occ  Alpha       7 (A)     -0.6482
               4       Occ  Beta        4 (A)     -0.7255
               5       Occ  Beta        5 (A)     -0.7255
               6       Occ  Beta        6 (A)     -0.7038
               7       Occ  Beta        7 (A)     -0.6482
               10      Vir  Alpha      10 (A)      0.5940
               11      Vir  Alpha      11 (A)      0.6527
               12      Vir  Alpha      12 (A)      0.6533
               13      Vir  Alpha      13 (A)      0.6533
               10      Vir  Beta       10 (A)      0.5940
               11      Vir  Beta       11 (A)      0.6527
               12      Vir  Beta       12 (A)      0.6533
               13      Vir  Beta       13 (A)      0.6533


           Solving for EOMEE-CCSD A triplet states.

      EOMEE-CCSD right amplitudes will be solved using Davidson.
      Roots     MaxVec    MaxIter   Precond   Conv      Thresh    Shift    
      12        60        60        0         1.00e-05  1.00e-05  0.00e+00  
 ------------------------------------------------------------------------------
         Vec  Conv   RNorm       Current eigenvalues (eV)
 ------------------------------------------------------------------------------
          13     0  1.87e-01    13.9140    13.9140    14.8390    15.4628 
                                15.4628    16.0304    16.0304    17.0643 
                                23.9403    25.1801    25.9672    25.9672 
     1    25     0  1.76e-02    11.4702    11.4702    12.8636    12.8636 
                                13.0801    14.5924    14.5925    15.3274 
                                21.5403    22.0187    22.9116    22.9116 
     2    37     0  2.86e-03    11.3325    11.3325    12.6969    12.6969 
                                12.9861    14.5275    14.5275    15.2358 
                                21.1781    21.8386    22.6750    22.6750 
     3    49     0  6.12e-04    11.3203    11.3203    12.6780    12.6780 
                                12.9801    14.5232    14.5232    15.2318 
                                21.0974    21.7815    22.6360    22.6360 
     4    60     3  2.67e-04    11.3200    11.3200    12.6762    12.6762 
                                12.9796*   14.5230*   14.5230*   15.2317 
                                21.0828    21.7572    22.6279    22.6360 
     5    24     8  1.43e-04    11.3193*   11.3193*   12.6756*   12.6757*
                                12.9794*   14.5227*   14.5227*   15.2315*
                                21.0761    21.7488    22.6234    22.6283 
     6    30     8  4.56e-05    11.3193*   11.3193*   12.6758*   12.6758*
                                12.9794*   14.5227*   14.5227*   15.2315*
                                21.0730    21.7442    22.6191    22.6221 
     7    34     8  1.51e-05    11.3193*   11.3193*   12.6758*   12.6758*
                                12.9794*   14.5227*   14.5227*   15.2315*
                                21.0731    21.7433    22.6181    22.6210 
     8    38    10  4.45e-06    11.3193*   11.3193*   12.6758*   12.6758*
                                12.9794*   14.5227*   14.5227*   15.2315*
                                21.0728*   21.7440    22.6176    22.6188*
     9    41    12  1.95e-06    11.3193*   11.3193*   12.6757*   12.6758*
                                12.9794*   14.5227*   14.5227*   15.2315*
                                21.0728*   21.7437*   22.6181*   22.6185*
    10    12     0  0.00e+00 
 ------------------------------------------------------------------------------

 EOMEE-CCSD transition 1/A
 Total energy = -108.54853191 a.u.  Excitation energy = 11.3193 eV.
 R1^2 = 0.9601  R2^2 = 0.0399  Res^2 = 2.28e-06

 Amplitude    Transitions between orbitals
 -0.6841       7 (A) A                   ->    8 (A) A                    
  0.6841       7 (A) B                   ->    8 (A) B                    
  0.1065       7 (A) A                   ->    15 (A) A                   
 -0.1065       7 (A) B                   ->    15 (A) B                   

              Summary of significant orbitals:

               Number  Type             Irrep      Energy
               7       Occ  Alpha       7 (A)     -0.6482
               7       Occ  Beta        7 (A)     -0.6482
               8       Vir  Alpha       8 (A)      0.2651
               15      Vir  Alpha      15 (A)      0.9603
               8       Vir  Beta        8 (A)      0.2651
               15      Vir  Beta       15 (A)      0.9603


 EOMEE-CCSD transition 2/A
 Total energy = -108.54853191 a.u.  Excitation energy = 11.3193 eV.
 R1^2 = 0.9601  R2^2 = 0.0399  Res^2 = 2.28e-06

 Amplitude    Transitions between orbitals
 -0.6841       7 (A) A                   ->    9 (A) A                    
  0.6841       7 (A) B                   ->    9 (A) B                    
 -0.1065       7 (A) A                   ->    16 (A) A                   
  0.1065       7 (A) B                   ->    16 (A) B                   

              Summary of significant orbitals:

               Number  Type             Irrep      Energy
               7       Occ  Alpha       7 (A)     -0.6482
               7       Occ  Beta        7 (A)     -0.6482
               9       Vir  Alpha       9 (A)      0.2651
               16      Vir  Alpha      16 (A)      0.9603
               9       Vir  Beta        9 (A)      0.2651
               16      Vir  Beta       16 (A)      0.9603


 EOMEE-CCSD transition 3/A
 Total energy = -108.49868383 a.u.  Excitation energy = 12.6757 eV.
 R1^2 = 0.9510  R2^2 = 0.0490  Res^2 = 1.04e-06

 Amplitude    Transitions between orbitals
 -0.6814       6 (A) A                   ->    9 (A) A                    
  0.6814       6 (A) B                   ->    9 (A) B                    
 -0.1045       6 (A) A                   ->    16 (A) A                   
  0.1045       6 (A) B                   ->    16 (A) B                   

              Summary of significant orbitals:

               Number  Type             Irrep      Energy
               6       Occ  Alpha       6 (A)     -0.7038
               6       Occ  Beta        6 (A)     -0.7038
               9       Vir  Alpha       9 (A)      0.2651
               16      Vir  Alpha      16 (A)      0.9603
               9       Vir  Beta        9 (A)      0.2651
               16      Vir  Beta       16 (A)      0.9603


 EOMEE-CCSD transition 4/A
 Total energy = -108.49868248 a.u.  Excitation energy = 12.6758 eV.
 R1^2 = 0.9510  R2^2 = 0.0490  Res^2 = 9.11e-07

 Amplitude    Transitions between orbitals
  0.6814       6 (A) A                   ->    8 (A) A                    
 -0.6814       6 (A) B                   ->    8 (A) B                    
 -0.1045       6 (A) A                   ->    15 (A) A                   
  0.1045       6 (A) B                   ->    15 (A) B                   

              Summary of significant orbitals:

               Number  Type             Irrep      Energy
               6       Occ  Alpha       6 (A)     -0.7038
               6       Occ  Beta        6 (A)     -0.7038
               8       Vir  Alpha       8 (A)      0.2651
               15      Vir  Alpha      15 (A)      0.9603
               8       Vir  Beta        8 (A)      0.2651
               15      Vir  Beta       15 (A)      0.9603


 EOMEE-CCSD transition 5/A
 Total energy = -108.48752424 a.u.  Excitation energy = 12.9794 eV.
 R1^2 = 0.9890  R2^2 = 0.0110  Res^2 = 1.27e-06

 Amplitude    Transitions between orbitals
 -0.4829       4 (A) A                   ->    8 (A) A                    
  0.4829       4 (A) B                   ->    8 (A) B                    
  0.4829       5 (A) A                   ->    9 (A) A                    
 -0.4829       5 (A) B                   ->    9 (A) B                    
  0.1096       4 (A) A                   ->    15 (A) A                   
 -0.1096       4 (A) B                   ->    15 (A) B                   
  0.1096       5 (A) A                   ->    16 (A) A                   
 -0.1096       5 (A) B                   ->    16 (A) B                   

              Summary of significant orbitals:

               Number  Type             Irrep      Energy
               4       Occ  Alpha       4 (A)     -0.7255
               5       Occ  Alpha       5 (A)     -0.7255
               4       Occ  Beta        4 (A)     -0.7255
               5       Occ  Beta        5 (A)     -0.7255
               8       Vir  Alpha       8 (A)      0.2651
               9       Vir  Alpha       9 (A)      0.2651
               15      Vir  Alpha      15 (A)      0.9603
               16      Vir  Alpha      16 (A)      0.9603
               8       Vir  Beta        8 (A)      0.2651
               9       Vir  Beta        9 (A)      0.2651
               15      Vir  Beta       15 (A)      0.9603
               16      Vir  Beta       16 (A)      0.9603


 EOMEE-CCSD transition 6/A
 Total energy = -108.43080781 a.u.  Excitation energy = 14.5227 eV.
 R1^2 = 0.9875  R2^2 = 0.0125  Res^2 = 1.98e-06

 Amplitude    Transitions between orbitals
 -0.4879       5 (A) A                   ->    8 (A) A                    
  0.4879       5 (A) B                   ->    8 (A) B                    
  0.4879       4 (A) A                   ->    9 (A) A                    
 -0.4879       4 (A) B                   ->    9 (A) B                    

              Summary of significant orbitals:

               Number  Type             Irrep      Energy
               4       Occ  Alpha       4 (A)     -0.7255
               5       Occ  Alpha       5 (A)     -0.7255
               4       Occ  Beta        4 (A)     -0.7255
               5       Occ  Beta        5 (A)     -0.7255
               8       Vir  Alpha       8 (A)      0.2651
               9       Vir  Alpha       9 (A)      0.2651
               8       Vir  Beta        8 (A)      0.2651
               9       Vir  Beta        9 (A)      0.2651


 EOMEE-CCSD transition 7/A
 Total energy = -108.43080778 a.u.  Excitation energy = 14.5227 eV.
 R1^2 = 0.9875  R2^2 = 0.0125  Res^2 = 2.01e-06

 Amplitude    Transitions between orbitals
 -0.4879       5 (A) A                   ->    9 (A) A                    
  0.4879       5 (A) B                   ->    9 (A) B                    
 -0.4879       4 (A) A                   ->    8 (A) A                    
  0.4879       4 (A) B                   ->    8 (A) B                    

              Summary of significant orbitals:

               Number  Type             Irrep      Energy
               4       Occ  Alpha       4 (A)     -0.7255
               5       Occ  Alpha       5 (A)     -0.7255
               4       Occ  Beta        4 (A)     -0.7255
               5       Occ  Beta        5 (A)     -0.7255
               8       Vir  Alpha       8 (A)      0.2651
               9       Vir  Alpha       9 (A)      0.2651
               8       Vir  Beta        8 (A)      0.2651
               9       Vir  Beta        9 (A)      0.2651


 EOMEE-CCSD transition 8/A
 Total energy = -108.40476047 a.u.  Excitation energy = 15.2315 eV.
 R1^2 = 0.9706  R2^2 = 0.0294  Res^2 = 2.25e-06

 Amplitude    Transitions between orbitals
  0.4853       4 (A) A                   ->    9 (A) A                    
 -0.4853       4 (A) B                   ->    9 (A) B                    
  0.4853       5 (A) A                   ->    8 (A) A                    
 -0.4853       5 (A) B                   ->    8 (A) B                    

              Summary of significant orbitals:

               Number  Type             Irrep      Energy
               4       Occ  Alpha       4 (A)     -0.7255
               5       Occ  Alpha       5 (A)     -0.7255
               4       Occ  Beta        4 (A)     -0.7255
               5       Occ  Beta        5 (A)     -0.7255
               8       Vir  Alpha       8 (A)      0.2651
               9       Vir  Alpha       9 (A)      0.2651
               8       Vir  Beta        8 (A)      0.2651
               9       Vir  Beta        9 (A)      0.2651


 EOMEE-CCSD transition 9/A
 Total energy = -108.19009591 a.u.  Excitation energy = 21.0728 eV.
 R1^2 = 0.9473  R2^2 = 0.0527  Res^2 = 3.37e-06

 Amplitude    Transitions between orbitals
  0.6261       7 (A) A                   ->    10 (A) A                   
 -0.6261       7 (A) B                   ->    10 (A) B                   
  0.2329       6 (A) A                   ->    11 (A) A                   
 -0.2329       6 (A) B                   ->    11 (A) B                   
 -0.1352       6 (A) A                   ->    14 (A) A                   
  0.1352       6 (A) B                   ->    14 (A) B                   

              Summary of significant orbitals:

               Number  Type             Irrep      Energy
               6       Occ  Alpha       6 (A)     -0.7038
               7       Occ  Alpha       7 (A)     -0.6482
               6       Occ  Beta        6 (A)     -0.7038
               7       Occ  Beta        7 (A)     -0.6482
               10      Vir  Alpha      10 (A)      0.5940
               11      Vir  Alpha      11 (A)      0.6527
               14      Vir  Alpha      14 (A)      0.8326
               10      Vir  Beta       10 (A)      0.5940
               11      Vir  Beta       11 (A)      0.6527
               14      Vir  Beta       14 (A)      0.8326


 EOMEE-CCSD transition 10/A
 Total energy = -108.16544097 a.u.  Excitation energy = 21.7437 eV.
 R1^2 = 0.9629  R2^2 = 0.0371  Res^2 = 2.19e-06

 Amplitude    Transitions between orbitals
  0.4986       6 (A) A                   ->    10 (A) A                   
 -0.4986       6 (A) B                   ->    10 (A) B                   
  0.4276       7 (A) A                   ->    11 (A) A                   
 -0.4276       7 (A) B                   ->    11 (A) B                   
 -0.1915       7 (A) A                   ->    14 (A) A                   
  0.1915       7 (A) B                   ->    14 (A) B                   

              Summary of significant orbitals:

               Number  Type             Irrep      Energy
               6       Occ  Alpha       6 (A)     -0.7038
               7       Occ  Alpha       7 (A)     -0.6482
               6       Occ  Beta        6 (A)     -0.7038
               7       Occ  Beta        7 (A)     -0.6482
               10      Vir  Alpha      10 (A)      0.5940
               11      Vir  Alpha      11 (A)      0.6527
               14      Vir  Alpha      14 (A)      0.8326
               10      Vir  Beta       10 (A)      0.5940
               11      Vir  Beta       11 (A)      0.6527
               14      Vir  Beta       14 (A)      0.8326


 EOMEE-CCSD transition 11/A
 Total energy = -108.13330730 a.u.  Excitation energy = 22.6181 eV.
 R1^2 = 0.9331  R2^2 = 0.0669  Res^2 = 5.69e-07

 Amplitude    Transitions between orbitals
  0.6731       7 (A) A                   ->    12 (A) A                   
 -0.6731       7 (A) B                   ->    12 (A) B                   
 -0.0872       6 (A) A                   ->    15 (A) A                   
  0.0872       6 (A) B                   ->    15 (A) B                   

              Summary of significant orbitals:

               Number  Type             Irrep      Energy
               6       Occ  Alpha       6 (A)     -0.7038
               7       Occ  Alpha       7 (A)     -0.6482
               6       Occ  Beta        6 (A)     -0.7038
               7       Occ  Beta        7 (A)     -0.6482
               12      Vir  Alpha      12 (A)      0.6533
               15      Vir  Alpha      15 (A)      0.9603
               12      Vir  Beta       12 (A)      0.6533
               15      Vir  Beta       15 (A)      0.9603


 EOMEE-CCSD transition 12/A
 Total energy = -108.13329273 a.u.  Excitation energy = 22.6185 eV.
 R1^2 = 0.9332  R2^2 = 0.0668  Res^2 = 3.31e-06

 Amplitude    Transitions between orbitals
 -0.6731       7 (A) A                   ->    13 (A) A                   
  0.6731       7 (A) B                   ->    13 (A) B                   
  0.0875       6 (A) A                   ->    16 (A) A                   
 -0.0875       6 (A) B                   ->    16 (A) B                   

              Summary of significant orbitals:

               Number  Type             Irrep      Energy
               6       Occ  Alpha       6 (A)     -0.7038
               7       Occ  Alpha       7 (A)     -0.6482
               6       Occ  Beta        6 (A)     -0.7038
               7       Occ  Beta        7 (A)     -0.6482
               13      Vir  Alpha      13 (A)      0.6533
               16      Vir  Alpha      16 (A)      0.9603
               13      Vir  Beta       13 (A)      0.6533
               16      Vir  Beta       16 (A)      0.9603


 EOMEE-CCSD calculation:   CPU 13.45 s  wall 13.31 s

 Total ccman2 time:   CPU 14.04 s  wall 13.94 s

 Analysis of SCF Wavefunction
 
 --------------------------------------------------------------
                    Orbital Energies (a.u.)
 --------------------------------------------------------------
 
 Alpha MOs
 -- Occupied --
-15.650 -15.634  -1.672  -0.725  -0.725  -0.704  -0.648
 -- Virtual --
  0.265   0.265   0.594   0.653   0.653   0.653   0.833   0.960
  0.960   1.141   1.934   4.021   4.021   4.053   4.147   4.147
  4.203  36.411  37.116
 --------------------------------------------------------------
 
          Ground-State Mulliken Net Atomic Charges

     Atom                 Charge (a.u.)
  ----------------------------------------
      1 N                     0.000000
      2 N                    -0.000000
  ----------------------------------------
  Sum of atomic charges =    -0.000000

 -----------------------------------------------------------------
                    Cartesian Multipole Moments
 -----------------------------------------------------------------
    Charge (ESU x 10^10)
                -0.0000
    Dipole Moment (Debye)
         X      -0.0000      Y      -0.0000      Z       0.0000
       Tot       0.0000
    Quadrupole Moments (Debye-Ang)
        XX      -9.4709     XY      -0.0000     YY      -9.4709
        XZ       0.0000     YZ       0.0000     ZZ     -12.1033
    Octopole Moments (Debye-Ang^2)
       XXX      -0.0000    XXY      -0.0000    XYY      -0.0000
       YYY      -0.0000    XXZ      -0.0000    XYZ      -0.0000
       YYZ      -0.0000    XZZ      -0.0000    YZZ      -0.0000
       ZZZ       0.0000
    Hexadecapole Moments (Debye-Ang^3)
      XXXX      -7.1702   XXXY      -0.0000   XXYY      -2.3901
      XYYY      -0.0000   YYYY      -7.1702   XXXZ       0.0000
      XXYZ       0.0000   XYYZ       0.0000   YYYZ       0.0000
      XXZZ      -4.9493   XYZZ      -0.0000   YYZZ      -4.9493
      XZZZ       0.0000   YZZZ       0.0000   ZZZZ     -24.0948
 -----------------------------------------------------------------
Archival summary:
1\1\v61\SP\ProcedureUnspecified\BasisUnspecified\2\avcopan\WedAug504:46:402015WedAug504:46:402015\0\\#,ProcedureUnspecified,BasisUnspecified,\\0,1\N\N,1,0.9\\HF=-108.72499\\@

 Total job time:  14.26s(wall), 14.14s(cpu) 
 Wed Aug  5 04:46:40 2015

        *************************************************************
        *                                                           *
        *  Thank you very much for using Q-Chem.  Have a nice day.  *
        *                                                           *
        *************************************************************


0 sent ACK to 0 
now end server 0 ... 
Job 2 of 12 
Process 0 of 1 is on v61 - thread support 0
initial socket setup ...start
initial socket setup ...done 
now start server 0 ... 
                  Welcome to Q-Chem
     A Quantum Leap Into The Future Of Chemistry


 Q-Chem 4.2, Q-Chem, Inc., Pleasanton, CA (2014).

 Y. Shao,  Z. Gan,  E. Epifanovsky,  A. T. B. Gilbert,  M. Wormit,  
 J. Kussmann,  A. W. Lange,  A. Behn,  J. Deng,  X. Feng,  D. Ghosh,  
 M. Goldey,  P. R. Horn,  L. D. Jacobson,  I. Kaliman,  R. Z. Khaliullin,  
 T. Kus,  A. Landau,  J. Liu,  E. I. Proynov,  Y. M. Rhee,  R. M. Richard,  
 M. A. Rohrdanz,  R. P. Steele,  E. J. Sundstrom,  H. L. Woodcock III,  
 P. M. Zimmerman,  D. Zuev,  B. Albrecht,  E. Alguire,  B. Austin,  
 G. J. O. Beran,  Y. A. Bernard,  E. Berquist,  K. Brandhorst,  
 K. B. Bravaya,  S. T. Brown,  D. Casanova,  C.-M. Chang,  Y. Chen,  
 S. H. Chien,  K. D. Closser,  D. L. Crittenden,  M. Diedenhofen,  
 R. A. DiStasio Jr.,  H. Do,  A. D. Dutoi,  R. G. Edgar,  S. Fatehi,  
 L. Fusti-Molnar,  A. Ghysels,  A. Golubeva-Zadorozhnaya,  J. Gomes,  
 M. W. D. Hanson-Heine,  P. H. P. Harbach,  A. W. Hauser,  E. G. Hohenstein,  
 Z. C. Holden,  T.-C. Jagau,  H. Ji,  B. Kaduk,  K. Khistyaev,  Jaehoon Kim,  
 Jihan Kim,  R. A. King,  P. Klunzinger,  D. Kosenkov,  T. Kowalczyk,  
 C. M. Krauter,  K. U. Lao,  A. Laurent,  K. V. Lawler,  S. V. Levchenko,  
 C. Y. Lin,  F. Liu,  E. Livshits,  R. C. Lochan,  A. Luenser,  P. Manohar,  
 S. F. Manzer,  S.-P. Mao,  N. Mardirossian,  A. V. Marenich,  S. A. Maurer,  
 N. J. Mayhall,  C. M. Oana,  R. Olivares-Amaya,  D. P. O'Neill,  
 J. A. Parkhill,  T. M. Perrine,  R. Peverati,  P. A. Pieniazek,  A. Prociuk,  
 D. R. Rehn,  E. Rosta,  N. J. Russ,  N. Sergueev,  S. M. Sharada,  
 S. Sharma,  D. W. Small,  A. Sodt,  T. Stein,  D. Stuck,  Y.-C. Su,  
 A. J. W. Thom,  T. Tsuchimochi,  L. Vogt,  O. Vydrov,  T. Wang,  
 M. A. Watson,  J. Wenzel,  A. White,  C. F. Williams,  V. Vanovschi,  
 S. Yeganeh,  S. R. Yost,  Z.-Q. You,  I. Y. Zhang,  X. Zhang,  Y. Zhao,  
 B. R. Brooks,  G. K. L. Chan,  D. M. Chipman,  C. J. Cramer,  
 W. A. Goddard III,  M. S. Gordon,  W. J. Hehre,  A. Klamt,  
 H. F. Schaefer III,  M. W. Schmidt,  C. D. Sherrill,  D. G. Truhlar,  
 A. Warshel,  X. Xu,  A. Aspuru-Guzik,  R. Baer,  A. T. Bell,  N. A. Besley,  
 J.-D. Chai,  A. Dreuw,  B. D. Dunietz,  T. R. Furlani,  S. R. Gwaltney,  
 C.-P. Hsu,  Y. Jung,  J. Kong,  D. S. Lambrecht,  W. Liang,  C. Ochsenfeld,  
 V. A. Rassolov,  L. V. Slipchenko,  J. E. Subotnik,  T. Van Voorhis,  
 J. M. Herbert,  A. I. Krylov,  P. M. W. Gill,  M. Head-Gordon

 Contributors to earlier versions of Q-Chem not listed above: 
 R. D. Adamson,  J. Baker,  E. F. C. Byrd,  A. K. Chakraborty,  C.-L. Cheng,  
 H. Dachsel,  R. J. Doerksen,  G. Hawkins,  A. Heyden,  S. Hirata,  
 G. Kedziora,  F. J. Keil,  C. Kelley,  P. P. Korambath,  W. Kurlancheek,  
 A. M. Lee,  M. S. Lee,  D. Liotard,  I. Lotan,  P. E. Maslen,  N. Nair,  
 D. Neuhauser,  R. Olson,  B. Peters,  J. Ritchie,  N. E. Schultz,  
 N. Shenvi,  A. C. Simmonett,  K. S. Thanthiriwatte,  Q. Wu,  W. Zhang

 Q-Chem 4.2.0 for Intel X86 EM64T Linux

 Parts of Q-Chem use Armadillo 4.100.2 (Dirt Cruiser).
 http://arma.sourceforge.net/

 Q-Chem begins on Wed Aug  5 04:46:42 2015  

Host: v61
0

     Scratch files written to /tmp1/avcopan/133911/qchem24091//
 Jun2414 |opt|qchem|4.2|qc42|libmdc|qstr_info.C -1
 Parallel job on  1  processors
Finally everything over in PARseQInput

--------------------------------------------------------------
User input:
--------------------------------------------------------------

$molecule
0 1
N
N,1,R1

R1=1.0
$end

$rem
method      eom-ccsd
basis       6-311G
cc_symmetry false
ee_singlets [12]
ee_triplets [12]
$end

--------------------------------------------------------------
 ----------------------------------------------------------------
             Standard Nuclear Orientation (Angstroms)
    I     Atom           X                Y                Z
 ----------------------------------------------------------------
    1      N       0.0000000000     0.0000000000    -0.5000000000
    2      N       0.0000000000     0.0000000000     0.5000000000
 ----------------------------------------------------------------
 Molecular Point Group                 D*h   NOp =***
 Largest Abelian Subgroup              D2h   NOp =  1
 Nuclear Repulsion Energy =    25.9296833292 hartrees
 There are        7 alpha and        7 beta electrons
 Requested basis set is 6-311G
 There are 8 shells and 26 basis functions
Total memory of 1801MB is distributed as follows: 
   QALLOC including MEM_STATIC uses 1301MB
   MEM_STATIC is set to 301MB
   CCMAN JOB total memory use is  1500MB
Warning: actual memory use might exceed 1801MB

Total QAlloc Memory Limit   1301 MB
Mega-Array Size       295 MB
MEM_STATIC part       301 MB

                       Distance Matrix (Angstroms)
             N (  1)
   N (  2)  1.000000
 
 A cutoff of  1.0D-14 yielded     36 shell pairs
 There are       387 function pairs
 Smallest overlap matrix eigenvalue = 3.94E-03

  Scale SEOQF with 1.000000e+00/1.000000e+00/1.000000e+00

 Standard Electronic Orientation quadrupole field applied
 Nucleus-field energy     =    -0.0000000037 hartrees
 Guess from superposition of atomic densities
 Warning:  Energy on first SCF cycle will be non-variational
 A restricted Hartree-Fock SCF calculation will be
 performed using Pulay DIIS extrapolation
 SCF converges when DIIS error is below 1.0E-08
 ---------------------------------------
  Cycle       Energy         DIIS Error
 ---------------------------------------
    1    -109.4238700035      2.24E-01
    2    -108.8555224332      1.10E-02
    3    -108.8655186134      2.51E-03
    4    -108.8660329353      6.02E-04
    5    -108.8660676748      6.44E-05
    6    -108.8660682313      7.03E-06
    7    -108.8660682383      9.77E-07
    8    -108.8660682384      9.62E-08
    9    -108.8660682384      3.33E-09 Convergence criterion met
 ---------------------------------------
 SCF time:  CPU 0.04 s  wall 0.06 s
 SCF   energy in the final basis set = -108.8660682384
 Total energy in the final basis set = -108.8660682384


 ------------------------------------------------------------------------------

   CCMAN2: suite of methods based on coupled cluster
           and equation of motion theories.

   Components:
   * libvmm-1.2-release
     by Evgeny Epifanovsky, Ilya Kaliman.
   * libtensor-2.3-release
     by Evgeny Epifanovsky, Michael Wormit, Dmitry Zuev, Sam Manzer.
   * libcc-2.3-release
     by Evgeny Epifanovsky, Arik Landau, Tomasz Kus, Kirill Khistyaev, 
        Dmitry Zuev, Prashant Manohar, Xintian Feng, Anna Krylov, 
        Matthew Goldey, Alec White, Thomas Jagau.

   CCMAN original authors:
   Anna I. Krylov, C. David Sherrill, Steven R. Gwaltney,
   Edward F. C. Byrd (2000)
   Sergey V. Levchenko, Lyudmila V. Slipchenko, Tao Wang,
   Ana-Maria C. Cristian (2003)
   Piotr A. Pieniazek, C. Melania Oana, Evgeny Epifanovsky (2007)
   Prashant Manohar (2009)

 ------------------------------------------------------------------------------


 Calculation will run on 1 core with 1500MB of RAM.


 Occupation and symmetry of molecular orbitals

 Point group: C1 (1 irreducible representation).

                           A     All 
 -------------------------------------
 All molecular orbitals:
  - Alpha                  26    26  
  - Beta                   26    26  
 -------------------------------------
 Alpha orbitals:
  - Frozen occupied        0     0   
  - Active occupied        7     7   
  - Active virtual         19    19  
  - Frozen virtual         0     0   
 -------------------------------------
 Beta orbitals:
  - Frozen occupied        0     0   
  - Active occupied        7     7   
  - Active virtual         19    19  
  - Frozen virtual         0     0   
 -------------------------------------

 Import integrals:   CPU 0.00 s  wall 0.00 s

 
 Import integrals:   CPU 0.02 s  wall 0.04 s

 MP2 amplitudes:   CPU 0.00 s  wall 0.00 s

           CCSD T amplitudes will be solved using DIIS.
           Estimated memory + disk requirements 14 MB +/-

           Start     Size      MaxIter   EConv     TConv     
           3         7         100       1.0e-06   0.00010   
 ------------------------------------------------------------------------------
           Energy (a.u.)   Ediff      Tdiff       Comment
 ------------------------------------------------------------------------------
          -109.12513874                           
     1    -109.11144394   1.37e-02   4.66e-01     
     2    -109.12068875   9.24e-03   6.81e-02     
     3    -109.12067582   1.29e-05   2.09e-02     
     4    -109.12164981   9.74e-04   8.20e-03     Switched to DIIS steps.
     5    -109.12194252   2.93e-04   5.83e-03     
     6    -109.12194532   2.80e-06   8.43e-04     
     7    -109.12194505   2.69e-07   1.16e-04     
     8    -109.12194483   2.14e-07   1.75e-05     
 ------------------------------------------------------------------------------
          -109.12194483                           CCSD T converged.

 SCF energy                 = -108.86606824
 MP2 energy                 = -109.12513874
 CCSD correlation energy    =   -0.25587660
 CCSD total energy          = -109.12194483

 CCSD  T1^2 = 0.0020  T2^2 = 0.0831.  Leading amplitudes:

 Amplitude    Orbitals with energies
 -0.0170       5 (A) A                   ->    12 (A) A                   
              -0.6683                          0.6816                     
 -0.0170       5 (A) B                   ->    12 (A) B                   
              -0.6683                          0.6816                     
  0.0170       6 (A) A                   ->    13 (A) A                   
              -0.6683                          0.6816                     
  0.0170       6 (A) B                   ->    13 (A) B                   
              -0.6683                          0.6816                     

 Amplitude    Orbitals with energies
 -0.0903       6 (A) A       6 (A) B     ->    9 (A) A       9 (A) B      
              -0.6683       -0.6683            0.2036        0.2036       
  0.0903       6 (A) A       6 (A) B     ->    9 (A) B       9 (A) A      
              -0.6683       -0.6683            0.2036        0.2036       
  0.0903       6 (A) B       6 (A) A     ->    9 (A) A       9 (A) B      
              -0.6683       -0.6683            0.2036        0.2036       
 -0.0903       6 (A) B       6 (A) A     ->    9 (A) B       9 (A) A      
              -0.6683       -0.6683            0.2036        0.2036       
 -0.0903       5 (A) A       5 (A) B     ->    8 (A) A       8 (A) B      
              -0.6683       -0.6683            0.2036        0.2036       
  0.0903       5 (A) A       5 (A) B     ->    8 (A) B       8 (A) A      
              -0.6683       -0.6683            0.2036        0.2036       
  0.0903       5 (A) B       5 (A) A     ->    8 (A) A       8 (A) B      
              -0.6683       -0.6683            0.2036        0.2036       
 -0.0903       5 (A) B       5 (A) A     ->    8 (A) B       8 (A) A      
              -0.6683       -0.6683            0.2036        0.2036       

 CCSD calculation:   CPU 0.36 s  wall 0.36 s

           Solving for EOMEE-CCSD A singlet states.

      EOMEE-CCSD right amplitudes will be solved using Davidson.
      Roots     MaxVec    MaxIter   Precond   Conv      Thresh    Shift    
      12        60        60        0         1.00e-05  1.00e-05  0.00e+00  
 ------------------------------------------------------------------------------
         Vec  Conv   RNorm       Current eigenvalues (eV)
 ------------------------------------------------------------------------------
          13     0  1.99e-01    13.9871    13.9871    14.2176    14.8040 
                                14.8040    18.4815    18.5533    22.5825 
                                25.6891    27.1830    27.4867    27.4867 
     1    25     0  1.98e-02    10.9881    10.9881    13.0490    13.3520 
                                13.3525    15.0663    15.0997    19.6476 
                                22.4564    23.9854    25.5009    25.5009 
     2    37     0  5.07e-03    10.7978    10.7978    13.0094    13.2881 
                                13.2882    14.6774    14.7122    19.3272 
                                22.2133    23.6979    25.3353    25.3353 
     3    49     0  1.21e-03    10.7566    10.7566    13.0076    13.2854 
                                13.2854    14.5945    14.5985    19.2818 
                                22.1704    23.6158    25.2850    25.2850 
     4    60     3  5.51e-04    10.7544    10.7544    13.0082*   13.2861*
                                13.2861*   14.5759    14.5776    19.2813 
                                22.1617    23.5766    25.2587    25.2765 
     5    23     3  1.84e-04    10.7532    10.7532    13.0082*   13.2859*
                                13.2859*   14.5725    14.5731    19.2794 
                                22.1592    23.5629    25.2534    25.2600 
     6    32     7  7.07e-05    10.7536*   10.7536*   13.0082*   13.2859*
                                13.2859*   14.5744    14.5745    19.2796*
                                22.1587*   23.5567    25.2505    25.2508 
     7    38     9  3.63e-05    10.7535*   10.7537*   13.0082*   13.2859*
                                13.2859*   14.5752*   14.5753*   19.2795*
                                22.1588*   23.5547    25.2487    25.2495 
     8    42     9  3.20e-05    10.7535*   10.7536*   13.0082*   13.2859*
                                13.2859*   14.5749*   14.5757*   19.2795*
                                22.1588*   23.5490    25.2476    25.2487 
     9    45     9  9.67e-04    10.7535*   10.7536*   13.0082*   13.2859*
                                13.2859*   14.5749*   14.5757*   19.2795*
                                22.1588*   23.5409    25.1950    25.2470 
    10    48    10  2.08e-04    10.7535*   10.7536*   13.0082*   13.2859*
                                13.2859*   14.5752*   14.5757*   19.2795*
                                22.1588*   23.5436    25.0676    25.2465*
    11    51    11  1.51e-04    10.7535*   10.7536*   13.0082*   13.2859*
                                13.2859*   14.5751*   14.5757*   19.2795*
                                22.1588*   23.5412*   25.0325    25.2465*
    12    53    11  1.62e-04    10.7535*   10.7536*   13.0082*   13.2859*
                                13.2859*   14.5752*   14.5757*   19.2795*
                                22.1588*   23.5417*   24.9977    25.2465*
    13    55    11  9.82e-05    10.7535*   10.7536*   13.0082*   13.2859*
                                13.2859*   14.5752*   14.5757*   19.2795*
                                22.1588*   23.5417*   24.9728    25.2465*
    14    56    11  4.89e-04    10.7535*   10.7536*   13.0082*   13.2859*
                                13.2859*   14.5752*   14.5757*   19.2795*
                                22.1588*   23.5417*   24.9465    25.2465*
    15    58     9  2.12e-02    10.7535*   10.7536*   13.0082*   13.2859*
                                13.2859*   14.5753*   14.5757*   19.2795*
                                22.1588*   22.2417    23.5417    24.9900 
    16    60    10  2.11e-03    10.7535*   10.7536*   13.0082*   13.2859*
                                13.2859*   14.5753*   14.5757*   19.2795*
                                21.1069    22.1588*   23.5418*   24.9796 
    17    14    10  6.50e-04    10.7535*   10.7536*   13.0082*   13.2859*
                                13.2859*   14.5753*   14.5757*   19.2795*
                                20.9995    22.1588*   23.5417*   24.9796 
    18    16    11  6.83e-05    10.7535*   10.7536*   13.0082*   13.2859*
                                13.2859*   14.5753*   14.5757*   19.2795*
                                20.9721    22.1588*   23.5417*   24.9796*
    19    18    11  9.35e-06    10.7535*   10.7536*   13.0082*   13.2859*
                                13.2859*   14.5753*   14.5757*   19.2795*
                                20.9686    22.1588*   23.5417*   24.9797*
    20    19    11  4.90e-06    10.7535*   10.7536*   13.0082*   13.2859*
                                13.2859*   14.5753*   14.5757*   19.2795*
                                20.9677    22.1588*   23.5417*   24.9797*
    21    20    11  2.67e-06    10.7535*   10.7536*   13.0082*   13.2859*
                                13.2859*   14.5753*   14.5757*   19.2795*
                                20.9672    22.1588*   23.5417*   24.9797*
    22    21    12  1.38e-06    10.7535*   10.7536*   13.0082*   13.2859*
                                13.2859*   14.5753*   14.5757*   19.2795*
                                20.9671*   22.1588*   23.5417*   24.9795*
    23    12     0  0.00e+00 
 ------------------------------------------------------------------------------

 EOMEE-CCSD transition 1/A
 Total energy = -108.72676016 a.u.  Excitation energy = 10.7535 eV.
 R1^2 = 0.9380  R2^2 = 0.0620  Res^2 = 5.34e-07

 Amplitude    Transitions between orbitals
  0.6781       7 (A) A                   ->    9 (A) A                    
  0.6781       7 (A) B                   ->    9 (A) B                    
 -0.0867       7 (A) A                   ->    16 (A) A                   
 -0.0867       7 (A) B                   ->    16 (A) B                   

              Summary of significant orbitals:

               Number  Type             Irrep      Energy
               7       Occ  Alpha       7 (A)     -0.6391
               7       Occ  Beta        7 (A)     -0.6391
               9       Vir  Alpha       9 (A)      0.2036
               16      Vir  Alpha      16 (A)      0.9171
               9       Vir  Beta        9 (A)      0.2036
               16      Vir  Beta       16 (A)      0.9171


 EOMEE-CCSD transition 2/A
 Total energy = -108.72675786 a.u.  Excitation energy = 10.7536 eV.
 R1^2 = 0.9381  R2^2 = 0.0619  Res^2 = 8.39e-07

 Amplitude    Transitions between orbitals
  0.6781       7 (A) A                   ->    8 (A) A                    
  0.6781       7 (A) B                   ->    8 (A) B                    
 -0.0867       7 (A) A                   ->    15 (A) A                   
 -0.0867       7 (A) B                   ->    15 (A) B                   

              Summary of significant orbitals:

               Number  Type             Irrep      Energy
               7       Occ  Alpha       7 (A)     -0.6391
               7       Occ  Beta        7 (A)     -0.6391
               8       Vir  Alpha       8 (A)      0.2036
               15      Vir  Alpha      15 (A)      0.9171
               8       Vir  Beta        8 (A)      0.2036
               15      Vir  Beta       15 (A)      0.9171


 EOMEE-CCSD transition 3/A
 Total energy = -108.64390403 a.u.  Excitation energy = 13.0082 eV.
 R1^2 = 0.9881  R2^2 = 0.0119  Res^2 = 2.19e-06

 Amplitude    Transitions between orbitals
 -0.4915       6 (A) A                   ->    8 (A) A                    
 -0.4915       6 (A) B                   ->    8 (A) B                    
  0.4915       5 (A) A                   ->    9 (A) A                    
  0.4915       5 (A) B                   ->    9 (A) B                    

              Summary of significant orbitals:

               Number  Type             Irrep      Energy
               5       Occ  Alpha       5 (A)     -0.6683
               6       Occ  Alpha       6 (A)     -0.6683
               5       Occ  Beta        5 (A)     -0.6683
               6       Occ  Beta        6 (A)     -0.6683
               8       Vir  Alpha       8 (A)      0.2036
               9       Vir  Alpha       9 (A)      0.2036
               8       Vir  Beta        8 (A)      0.2036
               9       Vir  Beta        9 (A)      0.2036


 EOMEE-CCSD transition 4/A
 Total energy = -108.63369637 a.u.  Excitation energy = 13.2859 eV.
 R1^2 = 0.9730  R2^2 = 0.0270  Res^2 = 9.37e-07

 Amplitude    Transitions between orbitals
  0.4887       5 (A) A                   ->    8 (A) A                    
  0.4887       5 (A) B                   ->    8 (A) B                    
 -0.4887       6 (A) A                   ->    9 (A) A                    
 -0.4887       6 (A) B                   ->    9 (A) B                    

              Summary of significant orbitals:

               Number  Type             Irrep      Energy
               5       Occ  Alpha       5 (A)     -0.6683
               6       Occ  Alpha       6 (A)     -0.6683
               5       Occ  Beta        5 (A)     -0.6683
               6       Occ  Beta        6 (A)     -0.6683
               8       Vir  Alpha       8 (A)      0.2036
               9       Vir  Alpha       9 (A)      0.2036
               8       Vir  Beta        8 (A)      0.2036
               9       Vir  Beta        9 (A)      0.2036


 EOMEE-CCSD transition 5/A
 Total energy = -108.63369626 a.u.  Excitation energy = 13.2859 eV.
 R1^2 = 0.9730  R2^2 = 0.0270  Res^2 = 8.94e-07

 Amplitude    Transitions between orbitals
  0.4887       5 (A) A                   ->    9 (A) A                    
  0.4887       5 (A) B                   ->    9 (A) B                    
  0.4887       6 (A) A                   ->    8 (A) A                    
  0.4887       6 (A) B                   ->    8 (A) B                    

              Summary of significant orbitals:

               Number  Type             Irrep      Energy
               5       Occ  Alpha       5 (A)     -0.6683
               6       Occ  Alpha       6 (A)     -0.6683
               5       Occ  Beta        5 (A)     -0.6683
               6       Occ  Beta        6 (A)     -0.6683
               8       Vir  Alpha       8 (A)      0.2036
               9       Vir  Alpha       9 (A)      0.2036
               8       Vir  Beta        8 (A)      0.2036
               9       Vir  Beta        9 (A)      0.2036


 EOMEE-CCSD transition 6/A
 Total energy = -108.58631344 a.u.  Excitation energy = 14.5753 eV.
 R1^2 = 0.8773  R2^2 = 0.1227  Res^2 = 4.87e-08

 Amplitude    Transitions between orbitals
  0.6582       4 (A) A                   ->    8 (A) A                    
  0.6582       4 (A) B                   ->    8 (A) B                    
 -0.0571       4 (A) A                   ->    15 (A) A                   
 -0.0571       4 (A) B                   ->    15 (A) B                   

              Summary of significant orbitals:

               Number  Type             Irrep      Energy
               4       Occ  Alpha       4 (A)     -0.7412
               4       Occ  Beta        4 (A)     -0.7412
               8       Vir  Alpha       8 (A)      0.2036
               15      Vir  Alpha      15 (A)      0.9171
               8       Vir  Beta        8 (A)      0.2036
               15      Vir  Beta       15 (A)      0.9171


 EOMEE-CCSD transition 7/A
 Total energy = -108.58629647 a.u.  Excitation energy = 14.5757 eV.
 R1^2 = 0.8777  R2^2 = 0.1223  Res^2 = 1.32e-06

 Amplitude    Transitions between orbitals
 -0.6583       4 (A) A                   ->    9 (A) A                    
 -0.6583       4 (A) B                   ->    9 (A) B                    
  0.0571       4 (A) A                   ->    16 (A) A                   
  0.0571       4 (A) B                   ->    16 (A) B                   

              Summary of significant orbitals:

               Number  Type             Irrep      Energy
               4       Occ  Alpha       4 (A)     -0.7412
               4       Occ  Beta        4 (A)     -0.7412
               9       Vir  Alpha       9 (A)      0.2036
               16      Vir  Alpha      16 (A)      0.9171
               9       Vir  Beta        9 (A)      0.2036
               16      Vir  Beta       16 (A)      0.9171


 EOMEE-CCSD transition 8/A
 Total energy = -108.41343452 a.u.  Excitation energy = 19.2795 eV.
 R1^2 = 0.9720  R2^2 = 0.0280  Res^2 = 2.34e-06

 Amplitude    Transitions between orbitals
  0.4680       6 (A) A                   ->    9 (A) A                    
  0.4680       6 (A) B                   ->    9 (A) B                    
  0.4680       5 (A) A                   ->    8 (A) A                    
  0.4680       5 (A) B                   ->    8 (A) B                    
 -0.1448       4 (A) A                   ->    14 (A) A                   
 -0.1448       4 (A) B                   ->    14 (A) B                   
 -0.1215       7 (A) A                   ->    17 (A) A                   
 -0.1215       7 (A) B                   ->    17 (A) B                   

              Summary of significant orbitals:

               Number  Type             Irrep      Energy
               4       Occ  Alpha       4 (A)     -0.7412
               5       Occ  Alpha       5 (A)     -0.6683
               6       Occ  Alpha       6 (A)     -0.6683
               7       Occ  Alpha       7 (A)     -0.6391
               4       Occ  Beta        4 (A)     -0.7412
               5       Occ  Beta        5 (A)     -0.6683
               6       Occ  Beta        6 (A)     -0.6683
               7       Occ  Beta        7 (A)     -0.6391
               8       Vir  Alpha       8 (A)      0.2036
               9       Vir  Alpha       9 (A)      0.2036
               14      Vir  Alpha      14 (A)      0.8231
               17      Vir  Alpha      17 (A)      1.0883
               8       Vir  Beta        8 (A)      0.2036
               9       Vir  Beta        9 (A)      0.2036
               14      Vir  Beta       14 (A)      0.8231
               17      Vir  Beta       17 (A)      1.0883


 EOMEE-CCSD transition 9/A
 Total energy = -108.35141660 a.u.  Excitation energy = 20.9671 eV.
 R1^2 = 0.0000  R2^2 = 1.0000  Res^2 = 4.15e-06

 Amplitude    Transitions between orbitals
 -0.3935       6 (A) A       7 (A) B     ->    9 (A) A       8 (A) B      
  0.3935       6 (A) A       7 (A) B     ->    8 (A) B       9 (A) A      
  0.3935       7 (A) B       6 (A) A     ->    9 (A) A       8 (A) B      
 -0.3935       6 (A) B       7 (A) A     ->    9 (A) B       8 (A) A      
 -0.3935       7 (A) A       6 (A) B     ->    8 (A) A       9 (A) B      
  0.3935       7 (A) A       6 (A) B     ->    9 (A) B       8 (A) A      
  0.3935       6 (A) B       7 (A) A     ->    8 (A) A       9 (A) B      
 -0.3935       7 (A) B       6 (A) A     ->    8 (A) B       9 (A) A      
  0.3929       6 (A) A       7 (A) A     ->    9 (A) A       8 (A) A      
  0.3929       6 (A) B       7 (A) B     ->    9 (A) B       8 (A) B      
  0.3929       7 (A) A       6 (A) A     ->    8 (A) A       9 (A) A      
  0.3929       7 (A) B       6 (A) B     ->    8 (A) B       9 (A) B      
 -0.3929       7 (A) A       6 (A) A     ->    9 (A) A       8 (A) A      
 -0.3929       7 (A) B       6 (A) B     ->    9 (A) B       8 (A) B      
 -0.3929       6 (A) A       7 (A) A     ->    8 (A) A       9 (A) A      
 -0.3929       6 (A) B       7 (A) B     ->    8 (A) B       9 (A) B      
  0.3926       7 (A) A       6 (A) B     ->    9 (A) A       8 (A) B      
 -0.3926       7 (A) A       6 (A) B     ->    8 (A) B       9 (A) A      
 -0.3926       6 (A) B       7 (A) A     ->    9 (A) A       8 (A) B      
  0.3926       7 (A) B       6 (A) A     ->    9 (A) B       8 (A) A      
  0.3926       6 (A) A       7 (A) B     ->    8 (A) A       9 (A) B      
 -0.3926       6 (A) A       7 (A) B     ->    9 (A) B       8 (A) A      
 -0.3926       7 (A) B       6 (A) A     ->    8 (A) A       9 (A) B      
  0.3926       6 (A) B       7 (A) A     ->    8 (A) B       9 (A) A      

              Summary of significant orbitals:

               Number  Type             Irrep      Energy
               6       Occ  Alpha       6 (A)     -0.6683
               7       Occ  Alpha       7 (A)     -0.6391
               6       Occ  Beta        6 (A)     -0.6683
               7       Occ  Beta        7 (A)     -0.6391
               8       Vir  Alpha       8 (A)      0.2036
               9       Vir  Alpha       9 (A)      0.2036
               8       Vir  Beta        8 (A)      0.2036
               9       Vir  Beta        9 (A)      0.2036


 EOMEE-CCSD transition 10/A
 Total energy = -108.30762442 a.u.  Excitation energy = 22.1588 eV.
 R1^2 = 0.9302  R2^2 = 0.0698  Res^2 = 2.56e-06

 Amplitude    Transitions between orbitals
 -0.6727       7 (A) A                   ->    10 (A) A                   
 -0.6727       7 (A) B                   ->    10 (A) B                   
  0.0991       4 (A) A                   ->    11 (A) A                   
  0.0991       4 (A) B                   ->    11 (A) B                   

              Summary of significant orbitals:

               Number  Type             Irrep      Energy
               4       Occ  Alpha       4 (A)     -0.7412
               7       Occ  Alpha       7 (A)     -0.6391
               4       Occ  Beta        4 (A)     -0.7412
               7       Occ  Beta        7 (A)     -0.6391
               10      Vir  Alpha      10 (A)      0.5806
               11      Vir  Alpha      11 (A)      0.6616
               10      Vir  Beta       10 (A)      0.5806
               11      Vir  Beta       11 (A)      0.6616


 EOMEE-CCSD transition 11/A
 Total energy = -108.25680303 a.u.  Excitation energy = 23.5417 eV.
 R1^2 = 0.8619  R2^2 = 0.1381  Res^2 = 2.08e-09

 Amplitude    Transitions between orbitals
 -0.6517       7 (A) A                   ->    12 (A) A                   
 -0.6517       7 (A) B                   ->    12 (A) B                   
  0.0644       4 (A) A                   ->    8 (A) A                    
  0.0644       4 (A) B                   ->    8 (A) B                    

              Summary of significant orbitals:

               Number  Type             Irrep      Energy
               4       Occ  Alpha       4 (A)     -0.7412
               7       Occ  Alpha       7 (A)     -0.6391
               4       Occ  Beta        4 (A)     -0.7412
               7       Occ  Beta        7 (A)     -0.6391
               8       Vir  Alpha       8 (A)      0.2036
               12      Vir  Alpha      12 (A)      0.6816
               8       Vir  Beta        8 (A)      0.2036
               12      Vir  Beta       12 (A)      0.6816


 EOMEE-CCSD transition 12/A
 Total energy = -108.20396491 a.u.  Excitation energy = 24.9795 eV.
 R1^2 = 0.1022  R2^2 = 0.8978  Res^2 = 7.17e-07

 Amplitude    Transitions between orbitals
  0.4030       7 (A) A       6 (A) B     ->    9 (A) A       8 (A) B      
 -0.4030       7 (A) A       6 (A) B     ->    8 (A) B       9 (A) A      
 -0.4030       6 (A) B       7 (A) A     ->    9 (A) A       8 (A) B      
  0.4030       7 (A) B       6 (A) A     ->    9 (A) B       8 (A) A      
  0.4030       6 (A) A       7 (A) B     ->    8 (A) A       9 (A) B      
 -0.4030       6 (A) A       7 (A) B     ->    9 (A) B       8 (A) A      
 -0.4030       7 (A) B       6 (A) A     ->    8 (A) A       9 (A) B      
  0.4030       6 (A) B       7 (A) A     ->    8 (A) B       9 (A) A      
  0.3531       6 (A) A       7 (A) A     ->    8 (A) A       9 (A) A      
  0.3531       6 (A) B       7 (A) B     ->    8 (A) B       9 (A) B      
  0.3531       7 (A) A       6 (A) A     ->    9 (A) A       8 (A) A      
  0.3531       7 (A) B       6 (A) B     ->    9 (A) B       8 (A) B      
 -0.3531       7 (A) A       6 (A) A     ->    8 (A) A       9 (A) A      
 -0.3531       7 (A) B       6 (A) B     ->    8 (A) B       9 (A) B      
 -0.3531       6 (A) A       7 (A) A     ->    9 (A) A       8 (A) A      
 -0.3531       6 (A) B       7 (A) B     ->    9 (A) B       8 (A) B      
  0.3296       7 (A) A       5 (A) B     ->    8 (A) A       8 (A) B      
 -0.3296       7 (A) A       5 (A) B     ->    8 (A) B       8 (A) A      
 -0.3296       5 (A) B       7 (A) A     ->    8 (A) A       8 (A) B      
  0.3296       7 (A) B       5 (A) A     ->    8 (A) B       8 (A) A      
  0.3296       5 (A) A       7 (A) B     ->    8 (A) A       8 (A) B      
 -0.3296       5 (A) A       7 (A) B     ->    8 (A) B       8 (A) A      
 -0.3296       7 (A) B       5 (A) A     ->    8 (A) A       8 (A) B      
  0.3296       5 (A) B       7 (A) A     ->    8 (A) B       8 (A) A      
 -0.1267       5 (A) A       7 (A) B     ->    9 (A) A       9 (A) B      
[...]

              Summary of significant orbitals:

               Number  Type             Irrep      Energy
               5       Occ  Alpha       5 (A)     -0.5007
               6       Occ  Alpha       6 (A)     -0.4250
               5       Occ  Beta        5 (A)     -0.5007
               6       Occ  Beta        6 (A)     -0.4250
               8       Vir  Alpha       8 (A)     -0.0843
               10      Vir  Alpha      10 (A)      0.0490
               8       Vir  Beta        8 (A)     -0.0843
               10      Vir  Beta       10 (A)      0.0490


 EOMEE-CCSD transition 6/A
 Total energy = -108.74621321 a.u.  Excitation energy = 4.5209 eV.
 R1^2 = 0.0023  R2^2 = 0.9977  Res^2 = 1.56e-06

 Amplitude    Transitions between orbitals
 -0.4497       5 (A) A       6 (A) B     ->    8 (A) A       8 (A) B      
  0.4497       5 (A) A       6 (A) B     ->    8 (A) B       8 (A) A      
  0.4497       6 (A) B       5 (A) A     ->    8 (A) A       8 (A) B      
  0.4497       5 (A) B       6 (A) A     ->    8 (A) B       8 (A) A      
  0.4497       6 (A) A       5 (A) B     ->    8 (A) A       8 (A) B      
 -0.4497       6 (A) A       5 (A) B     ->    8 (A) B       8 (A) A      
 -0.4497       5 (A) B       6 (A) A     ->    8 (A) A       8 (A) B      
 -0.4497       6 (A) B       5 (A) A     ->    8 (A) B       8 (A) A      
  0.4184       7 (A) A       5 (A) B     ->    8 (A) A       9 (A) B      
 -0.4184       7 (A) A       5 (A) B     ->    9 (A) B       8 (A) A      
 -0.4184       5 (A) B       7 (A) A     ->    8 (A) A       9 (A) B      
 -0.4184       7 (A) B       5 (A) A     ->    8 (A) B       9 (A) A      
 -0.4184       5 (A) A       7 (A) B     ->    9 (A) A       8 (A) B      
  0.4184       5 (A) A       7 (A) B     ->    8 (A) B       9 (A) A      
  0.4184       7 (A) B       5 (A) A     ->    9 (A) A       8 (A) B      
  0.4184       5 (A) B       7 (A) A     ->    9 (A) B       8 (A) A      
 -0.2378       5 (A) A       5 (A) B     ->    10 (A) A      8 (A) B      
  0.2378       5 (A) A       5 (A) B     ->    8 (A) B       10 (A) A     
  0.2378       5 (A) B       5 (A) A     ->    10 (A) A      8 (A) B      
  0.2378       5 (A) B       5 (A) A     ->    10 (A) B      8 (A) A      
  0.2378       5 (A) A       5 (A) B     ->    8 (A) A       10 (A) B     
 -0.2378       5 (A) A       5 (A) B     ->    10 (A) B      8 (A) A      
 -0.2378       5 (A) B       5 (A) A     ->    8 (A) A       10 (A) B     
 -0.2378       5 (A) B       5 (A) A     ->    8 (A) B       10 (A) A     
  0.1467       6 (A) A       6 (A) B     ->    10 (A) A      8 (A) B      
 -0.1467       6 (A) A       6 (A) B     ->    8 (A) B       10 (A) A     
 -0.1467       6 (A) B       6 (A) A     ->    10 (A) A      8 (A) B      
 -0.1467       6 (A) B       6 (A) A     ->    10 (A) B      8 (A) A      
 -0.1467       6 (A) A       6 (A) B     ->    8 (A) A       10 (A) B     
  0.1467       6 (A) A       6 (A) B     ->    10 (A) B      8 (A) A      
  0.1467       6 (A) B       6 (A) A     ->    8 (A) A       10 (A) B     
  0.1467       6 (A) B       6 (A) A     ->    8 (A) B       10 (A) A     
  0.1432       7 (A) A       6 (A) B     ->    10 (A) A      9 (A) B      
 -0.1432       7 (A) A       6 (A) B     ->    9 (A) B       10 (A) A     
 -0.1432       6 (A) B       7 (A) A     ->    10 (A) A      9 (A) B      
 -0.1432       7 (A) B       6 (A) A     ->    10 (A) B      9 (A) A      
 -0.1432       6 (A) A       7 (A) B     ->    9 (A) A       10 (A) B     
  0.1432       6 (A) A       7 (A) B     ->    10 (A) B      9 (A) A      
  0.1432       7 (A) B       6 (A) A     ->    9 (A) A       10 (A) B     
  0.1432       6 (A) B       7 (A) A     ->    9 (A) B       10 (A) A     

              Summary of significant orbitals:

               Number  Type             Irrep      Energy
               5       Occ  Alpha       5 (A)     -0.5007
               6       Occ  Alpha       6 (A)     -0.4250
               7       Occ  Alpha       7 (A)     -0.4250
               5       Occ  Beta        5 (A)     -0.5007
               6       Occ  Beta        6 (A)     -0.4250
               7       Occ  Beta        7 (A)     -0.4250
               8       Vir  Alpha       8 (A)     -0.0843
               9       Vir  Alpha       9 (A)     -0.0843
               10      Vir  Alpha      10 (A)      0.0490
               8       Vir  Beta        8 (A)     -0.0843
               9       Vir  Beta        9 (A)     -0.0843
               10      Vir  Beta       10 (A)      0.0490


 EOMEE-CCSD transition 7/A
 Total energy = -108.74620826 a.u.  Excitation energy = 4.5210 eV.
 R1^2 = 0.0023  R2^2 = 0.9977  Res^2 = 2.56e-06

 Amplitude    Transitions between orbitals
  0.3759       5 (A) A       7 (A) B     ->    9 (A) A       9 (A) B      
 -0.3759       5 (A) A       7 (A) B     ->    9 (A) B       9 (A) A      
 -0.3759       7 (A) B       5 (A) A     ->    9 (A) A       9 (A) B      
 -0.3759       5 (A) B       7 (A) A     ->    9 (A) B       9 (A) A      
 -0.3759       7 (A) A       5 (A) B     ->    9 (A) A       9 (A) B      
  0.3759       7 (A) A       5 (A) B     ->    9 (A) B       9 (A) A      
  0.3759       5 (A) B       7 (A) A     ->    9 (A) A       9 (A) B      
  0.3759       7 (A) B       5 (A) A     ->    9 (A) B       9 (A) A      
  0.3502       5 (A) A       6 (A) B     ->    8 (A) A       9 (A) B      
 -0.3502       5 (A) A       6 (A) B     ->    9 (A) B       8 (A) A      
 -0.3502       6 (A) B       5 (A) A     ->    8 (A) A       9 (A) B      
 -0.3502       5 (A) B       6 (A) A     ->    8 (A) B       9 (A) A      
 -0.3502       6 (A) A       5 (A) B     ->    9 (A) A       8 (A) B      
  0.3502       6 (A) A       5 (A) B     ->    8 (A) B       9 (A) A      
  0.3502       5 (A) B       6 (A) A     ->    9 (A) A       8 (A) B      
  0.3502       6 (A) B       5 (A) A     ->    9 (A) B       8 (A) A      
 -0.2474       5 (A) A       6 (A) B     ->    8 (A) A       8 (A) B      
  0.2474       5 (A) A       6 (A) B     ->    8 (A) B       8 (A) A      
  0.2474       6 (A) B       5 (A) A     ->    8 (A) A       8 (A) B      
  0.2474       5 (A) B       6 (A) A     ->    8 (A) B       8 (A) A      
  0.2474       6 (A) A       5 (A) B     ->    8 (A) A       8 (A) B      
 -0.2474       6 (A) A       5 (A) B     ->    8 (A) B       8 (A) A      
 -0.2474       5 (A) B       6 (A) A     ->    8 (A) A       8 (A) B      
 -0.2474       6 (A) B       5 (A) A     ->    8 (A) B       8 (A) A      
  0.2305       7 (A) A       5 (A) B     ->    8 (A) A       9 (A) B      
 -0.2305       7 (A) A       5 (A) B     ->    9 (A) B       8 (A) A      
 -0.2305       5 (A) B       7 (A) A     ->    8 (A) A       9 (A) B      
 -0.2305       7 (A) B       5 (A) A     ->    8 (A) B       9 (A) A      
 -0.2305       5 (A) A       7 (A) B     ->    9 (A) A       8 (A) B      
  0.2305       5 (A) A       7 (A) B     ->    8 (A) B       9 (A) A      
  0.2305       7 (A) B       5 (A) A     ->    9 (A) A       8 (A) B      
  0.2305       5 (A) B       7 (A) A     ->    9 (A) B       8 (A) A      
  0.1986       5 (A) A       5 (A) B     ->    10 (A) A      9 (A) B      
 -0.1986       5 (A) A       5 (A) B     ->    9 (A) B       10 (A) A     
 -0.1986       5 (A) B       5 (A) A     ->    10 (A) A      9 (A) B      
 -0.1986       5 (A) B       5 (A) A     ->    10 (A) B      9 (A) A      
 -0.1986       5 (A) A       5 (A) B     ->    9 (A) A       10 (A) B     
  0.1986       5 (A) A       5 (A) B     ->    10 (A) B      9 (A) A      
  0.1986       5 (A) B       5 (A) A     ->    9 (A) A       10 (A) B     
  0.1986       5 (A) B       5 (A) A     ->    9 (A) B       10 (A) A     
 -0.1308       5 (A) A       5 (A) B     ->    10 (A) A      8 (A) B      
  0.1308       5 (A) A       5 (A) B     ->    8 (A) B       10 (A) A     
  0.1308       5 (A) B       5 (A) A     ->    10 (A) A      8 (A) B      
  0.1308       5 (A) B       5 (A) A     ->    10 (A) B      8 (A) A      
  0.1308       5 (A) A       5 (A) B     ->    8 (A) A       10 (A) B     
 -0.1308       5 (A) A       5 (A) B     ->    10 (A) B      8 (A) A      
 -0.1308       5 (A) B       5 (A) A     ->    8 (A) A       10 (A) B     
 -0.1308       5 (A) B       5 (A) A     ->    8 (A) B       10 (A) A     
 -0.1226       7 (A) A       7 (A) B     ->    10 (A) A      9 (A) B      
  0.1226       7 (A) A       7 (A) B     ->    9 (A) B       10 (A) A     
  0.1226       7 (A) B       7 (A) A     ->    10 (A) A      9 (A) B      
  0.1226       7 (A) B       7 (A) A     ->    10 (A) B      9 (A) A      
  0.1226       7 (A) A       7 (A) B     ->    9 (A) A       10 (A) B     
 -0.1226       7 (A) A       7 (A) B     ->    10 (A) B      9 (A) A      
 -0.1226       7 (A) B       7 (A) A     ->    9 (A) A       10 (A) B     
 -0.1226       7 (A) B       7 (A) A     ->    9 (A) B       10 (A) A     
  0.1199       7 (A) A       6 (A) B     ->    8 (A) A       10 (A) B     
 -0.1199       7 (A) A       6 (A) B     ->    10 (A) B      8 (A) A      
 -0.1199       6 (A) B       7 (A) A     ->    8 (A) A       10 (A) B     
 -0.1199       7 (A) B       6 (A) A     ->    8 (A) B       10 (A) A     
 -0.1199       6 (A) A       7 (A) B     ->    10 (A) A      8 (A) B      
  0.1199       6 (A) A       7 (A) B     ->    8 (A) B       10 (A) A     
  0.1199       7 (A) B       6 (A) A     ->    10 (A) A      8 (A) B      
  0.1199       6 (A) B       7 (A) A     ->    10 (A) B      8 (A) A      

              Summary of significant orbitals:

               Number  Type             Irrep      Energy
               5       Occ  Alpha       5 (A)     -0.5007
               6       Occ  Alpha       6 (A)     -0.4250
               7       Occ  Alpha       7 (A)     -0.4250
               5       Occ  Beta        5 (A)     -0.5007
               6       Occ  Beta        6 (A)     -0.4250
               7       Occ  Beta        7 (A)     -0.4250
               8       Vir  Alpha       8 (A)     -0.0843
               9       Vir  Alpha       9 (A)     -0.0843
               10      Vir  Alpha      10 (A)      0.0490
               8       Vir  Beta        8 (A)     -0.0843
               9       Vir  Beta        9 (A)     -0.0843
               10      Vir  Beta       10 (A)      0.0490


 EOMEE-CCSD transition 8/A
 Total energy = -108.74376703 a.u.  Excitation energy = 4.5874 eV.
 R1^2 = 0.9638  R2^2 = 0.0362  Res^2 = 1.84e-06

 Amplitude    Transitions between orbitals
 -0.4884       6 (A) A                   ->    9 (A) A                    
  0.4884       6 (A) B                   ->    9 (A) B                    
  0.4884       7 (A) A                   ->    8 (A) A                    
 -0.4884       7 (A) B                   ->    8 (A) B                    

              Summary of significant orbitals:

               Number  Type             Irrep      Energy
               6       Occ  Alpha       6 (A)     -0.4250
               7       Occ  Alpha       7 (A)     -0.4250
               6       Occ  Beta        6 (A)     -0.4250
               7       Occ  Beta        7 (A)     -0.4250
               8       Vir  Alpha       8 (A)     -0.0843
               9       Vir  Alpha       9 (A)     -0.0843
               8       Vir  Beta        8 (A)     -0.0843
               9       Vir  Beta        9 (A)     -0.0843


 EOMEE-CCSD transition 9/A
 Total energy = -108.72661554 a.u.  Excitation energy = 5.0541 eV.
 R1^2 = 0.9725  R2^2 = 0.0275  Res^2 = 4.62e-06

 Amplitude    Transitions between orbitals
 -0.6523       5 (A) A                   ->    10 (A) A                   
  0.6523       5 (A) B                   ->    10 (A) B                   
  0.1657       7 (A) A                   ->    9 (A) A                    
 -0.1657       7 (A) B                   ->    9 (A) B                    
  0.1657       6 (A) A                   ->    8 (A) A                    
 -0.1657       6 (A) B                   ->    8 (A) B                    

              Summary of significant orbitals:

               Number  Type             Irrep      Energy
               5       Occ  Alpha       5 (A)     -0.5007
               6       Occ  Alpha       6 (A)     -0.4250
               7       Occ  Alpha       7 (A)     -0.4250
               5       Occ  Beta        5 (A)     -0.5007
               6       Occ  Beta        6 (A)     -0.4250
               7       Occ  Beta        7 (A)     -0.4250
               8       Vir  Alpha       8 (A)     -0.0843
               9       Vir  Alpha       9 (A)     -0.0843
               10      Vir  Alpha      10 (A)      0.0490
               8       Vir  Beta        8 (A)     -0.0843
               9       Vir  Beta        9 (A)     -0.0843
               10      Vir  Beta       10 (A)      0.0490


 EOMEE-CCSD transition 10/A
 Total energy = -108.70970385 a.u.  Excitation energy = 5.5143 eV.
 R1^2 = 0.0027  R2^2 = 0.9973  Res^2 = 4.35e-06

 Amplitude    Transitions between orbitals
 -0.4937       5 (A) A       6 (A) B     ->    8 (A) A       10 (A) B     
  0.4937       6 (A) A       5 (A) B     ->    10 (A) A      8 (A) B      
  0.4937       5 (A) A       6 (A) B     ->    10 (A) B      8 (A) A      
 -0.4937       6 (A) A       5 (A) B     ->    8 (A) B       10 (A) A     
  0.4937       6 (A) B       5 (A) A     ->    8 (A) A       10 (A) B     
 -0.4937       5 (A) B       6 (A) A     ->    10 (A) A      8 (A) B      
  0.4937       5 (A) B       6 (A) A     ->    8 (A) B       10 (A) A     
 -0.4937       6 (A) B       5 (A) A     ->    10 (A) B      8 (A) A      
 -0.4937       5 (A) A       7 (A) B     ->    9 (A) A       10 (A) B     
  0.4937       5 (A) A       7 (A) B     ->    10 (A) B      9 (A) A      
  0.4937       7 (A) B       5 (A) A     ->    9 (A) A       10 (A) B     
  0.4937       5 (A) B       7 (A) A     ->    9 (A) B       10 (A) A     
  0.4937       7 (A) A       5 (A) B     ->    10 (A) A      9 (A) B      
 -0.4937       7 (A) A       5 (A) B     ->    9 (A) B       10 (A) A     
 -0.4937       5 (A) B       7 (A) A     ->    10 (A) A      9 (A) B      
 -0.4937       7 (A) B       5 (A) A     ->    10 (A) B      9 (A) A      

              Summary of significant orbitals:

               Number  Type             Irrep      Energy
               5       Occ  Alpha       5 (A)     -0.5007
               6       Occ  Alpha       6 (A)     -0.4250
               7       Occ  Alpha       7 (A)     -0.4250
               5       Occ  Beta        5 (A)     -0.5007
               6       Occ  Beta        6 (A)     -0.4250
               7       Occ  Beta        7 (A)     -0.4250
               8       Vir  Alpha       8 (A)     -0.0843
               9       Vir  Alpha       9 (A)     -0.0843
               10      Vir  Alpha      10 (A)      0.0490
               8       Vir  Beta        8 (A)     -0.0843
               9       Vir  Beta        9 (A)     -0.0843
               10      Vir  Beta       10 (A)      0.0490


 EOMEE-CCSD transition 11/A
 Total energy = -108.69139640 a.u.  Excitation energy = 6.0125 eV.
 R1^2 = 0.9680  R2^2 = 0.0320  Res^2 = 1.64e-06

 Amplitude    Transitions between orbitals
 -0.6862       7 (A) A                   ->    10 (A) A                   
  0.6862       7 (A) B                   ->    10 (A) B                   
  0.0791       5 (A) A                   ->    9 (A) A                    
 -0.0791       5 (A) B                   ->    9 (A) B                    

              Summary of significant orbitals:

               Number  Type             Irrep      Energy
               5       Occ  Alpha       5 (A)     -0.5007
               7       Occ  Alpha       7 (A)     -0.4250
               5       Occ  Beta        5 (A)     -0.5007
               7       Occ  Beta        7 (A)     -0.4250
               9       Vir  Alpha       9 (A)     -0.0843
               10      Vir  Alpha      10 (A)      0.0490
               9       Vir  Beta        9 (A)     -0.0843
               10      Vir  Beta       10 (A)      0.0490


 EOMEE-CCSD transition 12/A
 Total energy = -108.69139541 a.u.  Excitation energy = 6.0125 eV.
 R1^2 = 0.9680  R2^2 = 0.0320  Res^2 = 1.41e-06

 Amplitude    Transitions between orbitals
 -0.6861       6 (A) A                   ->    10 (A) A                   
  0.6861       6 (A) B                   ->    10 (A) B                   
  0.0792       5 (A) A                   ->    8 (A) A                    
 -0.0792       5 (A) B                   ->    8 (A) B                    

              Summary of significant orbitals:

               Number  Type             Irrep      Energy
               5       Occ  Alpha       5 (A)     -0.5007
               6       Occ  Alpha       6 (A)     -0.4250
               5       Occ  Beta        5 (A)     -0.5007
               6       Occ  Beta        6 (A)     -0.4250
               8       Vir  Alpha       8 (A)     -0.0843
               10      Vir  Alpha      10 (A)      0.0490
               8       Vir  Beta        8 (A)     -0.0843
               10      Vir  Beta       10 (A)      0.0490


 EOMEE-CCSD calculation:   CPU 32.93 s  wall 32.62 s

 Total ccman2 time:   CPU 33.98 s  wall 33.68 s

 Analysis of SCF Wavefunction
 
 --------------------------------------------------------------
                    Orbital Energies (a.u.)
 --------------------------------------------------------------
 
 Alpha MOs
 -- Occupied --
-15.825 -15.825  -1.130  -0.965  -0.501  -0.425  -0.425
 -- Virtual --
 -0.084  -0.084   0.049   0.732   0.733   0.733   0.768   0.825
  0.825   0.938   1.114   3.868   3.944   3.944   3.994   3.994
  4.140  36.281  36.335
 --------------------------------------------------------------
 
          Ground-State Mulliken Net Atomic Charges

     Atom                 Charge (a.u.)
  ----------------------------------------
      1 N                     0.000000
      2 N                    -0.000000
  ----------------------------------------
  Sum of atomic charges =    -0.000000

 -----------------------------------------------------------------
                    Cartesian Multipole Moments
 -----------------------------------------------------------------
    Charge (ESU x 10^10)
                 0.0000
    Dipole Moment (Debye)
         X       0.0000      Y       0.0000      Z      -0.0000
       Tot       0.0000
    Quadrupole Moments (Debye-Ang)
        XX     -11.9447     XY      -0.0000     YY     -11.9447
        XZ      -0.0000     YZ      -0.0000     ZZ     -11.8213
    Octopole Moments (Debye-Ang^2)
       XXX       0.0000    XXY       0.0000    XYY       0.0000
       YYY       0.0000    XXZ      -0.0000    XYZ       0.0000
       YYZ      -0.0000    XZZ       0.0000    YZZ       0.0000
       ZZZ      -0.0000
    Hexadecapole Moments (Debye-Ang^3)
      XXXX     -11.1759   XXXY      -0.0000   XXYY      -3.7253
      XYYY      -0.0000   YYYY     -11.1759   XXXZ      -0.0000
      XXYZ      -0.0000   XYYZ      -0.0000   YYYZ      -0.0000
      XXZZ     -13.7335   XYZZ      -0.0000   YYZZ     -13.7335
      XZZZ      -0.0000   YZZZ      -0.0000   ZZZZ     -73.0974
 -----------------------------------------------------------------
Archival summary:
1\1\v61\SP\ProcedureUnspecified\BasisUnspecified\2\avcopan\WedAug504:51:522015WedAug504:51:522015\0\\#,ProcedureUnspecified,BasisUnspecified,\\0,1\N\N,1,1.9\\HF=-108.389265\\@

 Total job time:  33.82s(wall), 34.07s(cpu) 
 Wed Aug  5 04:51:52 2015

        *************************************************************
        *                                                           *
        *  Thank you very much for using Q-Chem.  Have a nice day.  *
        *                                                           *
        *************************************************************


0 sent ACK to 0 
now end server 0 ... 
